 Entering Gaussian System, Link 0=g09
 Input=/home/mmarcarino.iquir/NMR/01_RSR_Levo10_OPTB_nmr.gjc
 Output=/home/mmarcarino.iquir/NMR/01_RSR_Levo10_OPTB_nmr.log
 Initial command:
 /share/apps/Gaussian09/EM64T.SSE4.2-enabled/g09/l1.exe /tmp/Gau-21077.inp -scrdir=/tmp/
 Entering Link 1 = /share/apps/Gaussian09/EM64T.SSE4.2-enabled/g09/l1.exe PID=     21078.
  
 Copyright (c) 1988,1990,1992,1993,1995,1998,2003,2009,2011,
            Gaussian, Inc.  All Rights Reserved.
  
 This is part of the Gaussian(R) 09 program.  It is based on
 the Gaussian(R) 03 system (copyright 2003, Gaussian, Inc.),
 the Gaussian(R) 98 system (copyright 1998, Gaussian, Inc.),
 the Gaussian(R) 94 system (copyright 1995, Gaussian, Inc.),
 the Gaussian 92(TM) system (copyright 1992, Gaussian, Inc.),
 the Gaussian 90(TM) system (copyright 1990, Gaussian, Inc.),
 the Gaussian 88(TM) system (copyright 1988, Gaussian, Inc.),
 the Gaussian 86(TM) system (copyright 1986, Carnegie Mellon
 University), and the Gaussian 82(TM) system (copyright 1983,
 Carnegie Mellon University). Gaussian is a federally registered
 trademark of Gaussian, Inc.
  
 This software contains proprietary and confidential information,
 including trade secrets, belonging to Gaussian, Inc.
  
 This software is provided under written license and may be
 used, copied, transmitted, or stored only in accord with that
 written license.
  
 The following legend is applicable only to US Government
 contracts under FAR:
  
                    RESTRICTED RIGHTS LEGEND
  
 Use, reproduction and disclosure by the US Government is
 subject to restrictions as set forth in subparagraphs (a)
 and (c) of the Commercial Computer Software - Restricted
 Rights clause in FAR 52.227-19.
  
 Gaussian, Inc.
 340 Quinnipiac St., Bldg. 40, Wallingford CT 06492
  
  
 ---------------------------------------------------------------
 Warning -- This program may not be used in any manner that
 competes with the business of Gaussian, Inc. or will provide
 assistance to any competitor of Gaussian, Inc.  The licensee
 of this program is prohibited from giving any competitor of
 Gaussian, Inc. access to this program.  By using this program,
 the user acknowledges that Gaussian, Inc. is engaged in the
 business of creating and licensing software in the field of
 computational chemistry and represents and warrants to the
 licensee that it is not a competitor of Gaussian, Inc. and that
 it will not use this program in any manner prohibited above.
 ---------------------------------------------------------------
  

 Cite this work as:
 Gaussian 09, Revision C.01,
 M. J. Frisch, G. W. Trucks, H. B. Schlegel, G. E. Scuseria, 
 M. A. Robb, J. R. Cheeseman, G. Scalmani, V. Barone, B. Mennucci, 
 G. A. Petersson, H. Nakatsuji, M. Caricato, X. Li, H. P. Hratchian, 
 A. F. Izmaylov, J. Bloino, G. Zheng, J. L. Sonnenberg, M. Hada, 
 M. Ehara, K. Toyota, R. Fukuda, J. Hasegawa, M. Ishida, T. Nakajima, 
 Y. Honda, O. Kitao, H. Nakai, T. Vreven, J. A. Montgomery, Jr., 
 J. E. Peralta, F. Ogliaro, M. Bearpark, J. J. Heyd, E. Brothers, 
 K. N. Kudin, V. N. Staroverov, T. Keith, R. Kobayashi, J. Normand, 
 K. Raghavachari, A. Rendell, J. C. Burant, S. S. Iyengar, J. Tomasi, 
 M. Cossi, N. Rega, J. M. Millam, M. Klene, J. E. Knox, J. B. Cross, 
 V. Bakken, C. Adamo, J. Jaramillo, R. Gomperts, R. E. Stratmann, 
 O. Yazyev, A. J. Austin, R. Cammi, C. Pomelli, J. W. Ochterski, 
 R. L. Martin, K. Morokuma, V. G. Zakrzewski, G. A. Voth, 
 P. Salvador, J. J. Dannenberg, S. Dapprich, A. D. Daniels, 
 O. Farkas, J. B. Foresman, J. V. Ortiz, J. Cioslowski, 
 and D. J. Fox, Gaussian, Inc., Wallingford CT, 2010.
 
 ******************************************
 Gaussian 09:  EM64L-G09RevC.01 23-Sep-2011
                12-Apr-2019 
 ******************************************
 %nprocshared=4
 Will use up to    4 processors via shared memory.
 ------------------------------------------------
 # mpw1pw91/6-31+g** nmr scrf=(pcm,solvent=water)
 ------------------------------------------------
 1/38=1/1;
 2/12=2,17=6,18=5,40=1/2;
 3/5=1,6=6,7=111,11=2,16=1,25=1,30=1,70=2201,72=1,74=-7/1,2,8,3;
 4//1;
 5/5=2,38=5,53=1/2;
 8/6=1,10=90,11=11/1;
 10/13=100,45=16/2;
 6/7=2,8=2,9=2,10=2,28=1/1;
 99/9=1/99;
 -------
 comment
 -------
 Charge =  0 Multiplicity = 1
 Symbolic Z-Matrix:
 6                    -2.12537   0.6242   -0.62345 
 6                    -1.09659   1.01527   0.43636 
 6                    -0.9569   -1.18413   0.20673 
 6                     1.21862   0.05061   0.04416 
 6                     0.51663  -1.27782  -0.26639 
 6                     0.30998   1.26925  -0.17234 
 8                    -1.08338  -0.20183   1.22077 
 8                    -1.79371  -0.75362  -0.87155 
 8                     1.00079   2.35948   0.44259 
 8                     2.40397   0.15789  -0.73 
 8                     1.1952   -2.38566   0.31622 
 1                    -2.0413    1.18603  -1.55744 
 1                    -3.14833   0.70514  -0.23721 
 1                    -1.40063   1.8347    1.0892 
 1                    -1.30448  -2.14532   0.5967 
 1                     1.46439   0.04533   1.11835 
 1                     0.52551  -1.46376  -1.34397 
 1                     0.22206   1.45092  -1.25173 
 1                     0.66723   3.18578   0.05853 
 1                     2.77383   1.03289  -0.51992 
 1                     1.26063  -2.22603   1.27278 
 
                          Input orientation:                          
 ---------------------------------------------------------------------
 Center     Atomic      Atomic             Coordinates (Angstroms)
 Number     Number       Type             X           Y           Z
 ---------------------------------------------------------------------
      1          6           0       -2.125374    0.624199   -0.623453
      2          6           0       -1.096594    1.015268    0.436361
      3          6           0       -0.956900   -1.184127    0.206730
      4          6           0        1.218620    0.050614    0.044163
      5          6           0        0.516626   -1.277825   -0.266385
      6          6           0        0.309979    1.269248   -0.172339
      7          8           0       -1.083381   -0.201831    1.220771
      8          8           0       -1.793710   -0.753620   -0.871554
      9          8           0        1.000792    2.359483    0.442590
     10          8           0        2.403970    0.157886   -0.730000
     11          8           0        1.195197   -2.385658    0.316223
     12          1           0       -2.041300    1.186033   -1.557439
     13          1           0       -3.148325    0.705135   -0.237211
     14          1           0       -1.400629    1.834703    1.089200
     15          1           0       -1.304475   -2.145319    0.596698
     16          1           0        1.464388    0.045326    1.118355
     17          1           0        0.525510   -1.463763   -1.343970
     18          1           0        0.222061    1.450919   -1.251729
     19          1           0        0.667227    3.185775    0.058531
     20          1           0        2.773829    1.032889   -0.519919
     21          1           0        1.260633   -2.226030    1.272784
 ---------------------------------------------------------------------
                    Distance matrix (angstroms):
                    1          2          3          4          5
     1  C    0.000000
     2  C    1.527917   0.000000
     3  C    2.307505   2.215758   0.000000
     4  C    3.457891   2.538620   2.506771   0.000000
     5  C    3.274959   2.890434   1.550450   1.534270   0.000000
     6  C    2.559402   1.553534   2.787064   1.535438   2.557172
     7  O    2.273596   1.448034   1.417456   2.597565   2.435040
     8  O    1.438729   2.307721   1.431183   3.249533   2.445132
     9  O    3.731028   2.491181   4.055288   2.353098   3.737255
    10  O    4.554531   3.788067   3.738169   1.419821   2.416252
    11  O    4.579129   4.102808   2.467223   2.451527   1.423792
    12  H    1.093186   2.212887   3.147360   3.805441   3.778942
    13  H    1.096432   2.181624   2.927241   4.424678   4.167115
    14  H    2.218954   1.090922   3.176316   3.336996   3.898885
    15  H    3.135741   3.171472   1.093971   3.390195   2.194053
    16  H    4.031796   2.822150   2.864481   1.101961   2.136934
    17  H    3.450495   3.456356   2.163425   2.168099   1.093545
    18  H    2.566836   2.185930   3.234273   2.152515   2.916113
    19  H    3.850376   2.822219   4.664311   3.183312   4.477943
    20  H    4.917310   3.986848   4.400172   1.923987   3.240161
    21  H    4.815035   4.094159   2.671982   2.587350   1.954912
                    6          7          8          9         10
     6  C    0.000000
     7  O    2.458919   0.000000
     8  O    3.001067   2.277468   0.000000
     9  O    1.429676   3.392591   4.384932   0.000000
    10  O    2.435346   4.012047   4.297836   2.861976   0.000000
    11  O    3.792182   3.283173   3.606650   4.750803   3.004219
    12  H    2.730190   3.249958   2.072195   3.825105   4.637043
    13  H    3.504611   2.685571   2.089339   4.518204   5.600920
    14  H    2.199409   2.065291   3.270854   2.541716   4.538301
    15  H    3.854497   2.053167   2.081332   5.062731   4.562614
    16  H    2.120504   2.561777   3.900417   2.454975   2.076512
    17  H    2.981362   3.280076   2.471085   4.246752   2.556427
    18  H    1.098097   3.247925   3.011288   2.074278   2.589375
    19  H    1.963161   3.986390   4.737098   0.970322   3.578571
    20  H    2.499447   4.408243   4.917080   2.414526   0.972913
    21  H    3.899884   3.097497   4.011881   4.667298   3.316839
                   11         12         13         14         15
    11  O    0.000000
    12  H    5.171315   0.000000
    13  H    5.359615   1.788790   0.000000
    14  H    5.014704   2.799273   2.467738   0.000000
    15  H    2.526814   4.034987   3.495751   4.011531   0.000000
    16  H    2.574017   4.555319   4.852837   3.378023   3.568985
    17  H    2.013607   3.695335   4.407505   4.528819   2.753099
    18  H    4.257322   2.299223   3.597908   2.874084   4.322028
    19  H    5.602323   3.734494   4.560644   2.676509   5.709448
    20  H    3.857159   4.928019   5.937950   4.545137   5.289651
    21  H    0.971994   5.527667   5.505518   4.858556   2.653938
                   16         17         18         19         20
    16  H    0.000000
    17  H    3.036756   0.000000
    18  H    3.022642   2.931887   0.000000
    19  H    3.408975   4.858528   2.219162   0.000000
    20  H    2.318158   3.459374   2.687343   3.067131   0.000000
    21  H    2.285700   2.822917   4.579493   5.578008   4.015482
                   21
    21  H    0.000000
 Stoichiometry    C6H10O5
 Framework group  C1[X(C6H10O5)]
 Deg. of freedom    57
 Full point group                 C1      NOp   1
 Largest Abelian subgroup         C1      NOp   1
 Largest concise Abelian subgroup C1      NOp   1
                         Standard orientation:                         
 ---------------------------------------------------------------------
 Center     Atomic      Atomic             Coordinates (Angstroms)
 Number     Number       Type             X           Y           Z
 ---------------------------------------------------------------------
      1          6           0       -2.125374    0.624199   -0.623453
      2          6           0       -1.096594    1.015268    0.436361
      3          6           0       -0.956900   -1.184127    0.206730
      4          6           0        1.218620    0.050614    0.044163
      5          6           0        0.516626   -1.277825   -0.266385
      6          6           0        0.309979    1.269248   -0.172339
      7          8           0       -1.083381   -0.201831    1.220771
      8          8           0       -1.793710   -0.753620   -0.871554
      9          8           0        1.000792    2.359483    0.442590
     10          8           0        2.403970    0.157886   -0.730000
     11          8           0        1.195197   -2.385658    0.316223
     12          1           0       -2.041300    1.186033   -1.557439
     13          1           0       -3.148325    0.705134   -0.237211
     14          1           0       -1.400629    1.834703    1.089200
     15          1           0       -1.304475   -2.145319    0.596698
     16          1           0        1.464388    0.045326    1.118355
     17          1           0        0.525510   -1.463763   -1.343970
     18          1           0        0.222061    1.450919   -1.251729
     19          1           0        0.667227    3.185775    0.058531
     20          1           0        2.773829    1.032889   -0.519919
     21          1           0        1.260633   -2.226030    1.272784
 ---------------------------------------------------------------------
 Rotational constants (GHZ):      1.3966015      1.2566940      0.8058892
 Standard basis: 6-31+G(d,p) (6D, 7F)
 There are   259 symmetry adapted basis functions of A   symmetry.
 Integral buffers will be    131072 words long.
 Raffenetti 2 integral format.
 Two-electron integral symmetry is turned on.
   259 basis functions,   422 primitive gaussians,   259 cartesian basis functions
    43 alpha electrons       43 beta electrons
       nuclear repulsion energy       716.7631706308 Hartrees.
 NAtoms=   21 NActive=   21 NUniq=   21 SFac= 1.00D+00 NAtFMM=   60 NAOKFM=F Big=F
 ------------------------------------------------------------------------------
 Polarizable Continuum Model (PCM)
 =================================
 Model                : PCM.
 Atomic radii         : UFF (Universal Force Field).
 Polarization charges : Total charges.
 Charge compensation  : None.
 Solution method      : Matrix inversion.
 Cavity type          : Scaled VdW (van der Waals Surface) (Alpha=1.100).
 Cavity algorithm     : GePol (No added spheres)
                        Default sphere list used, NSphG=   21.
                        Lebedev-Laikov grids with approx.  5.0 points / Ang**2.
                        Smoothing algorithm: Karplus/York (Gamma=1.0000).
                        Polarization charges: spherical gaussians, with
                                              point-specific exponents (IZeta= 3).
                        Self-potential: point-specific (ISelfS= 7).
                        Self-field    : sphere-specific E.n sum rule (ISelfD= 2).
 Solvent              : Water, Eps=  78.355300 Eps(inf)=   1.777849
 ------------------------------------------------------------------------------
 One-electron integrals computed using PRISM.
 NBasis=   259 RedAO= T  NBF=   259
 NBsUse=   259 1.00D-06 NBFU=   259
 Harris functional with IExCor=  908 diagonalized for initial guess.
 ExpMin= 4.38D-02 ExpMax= 5.48D+03 ExpMxC= 8.25D+02 IAcc=2 IRadAn=         4 AccDes= 0.00D+00
 HarFok:  IExCor=  908 AccDes= 0.00D+00 IRadAn=         4 IDoV= 1
 ScaDFX=  1.000000  1.000000  1.000000  1.000000
 FoFCou: FMM=F IPFlag=           0 FMFlag=      100000 FMFlg1=           0
         NFxFlg=           0 DoJE=T BraDBF=F KetDBF=T FulRan=T
         Omega=  0.000000  0.000000  1.000000  0.000000  0.000000 ICntrl=     500 IOpCl=  0
         NMat0=    1 NMatS0=    1 NMatT0=    0 NMatD0=    1 NMtDS0=    0 NMtDT0=    0
         I1Cent=           4 NGrid=           0.
 Petite list used in FoFCou.
 Initial guess orbital symmetries:
       Occupied  (A) (A) (A) (A) (A) (A) (A) (A) (A) (A) (A) (A)
                 (A) (A) (A) (A) (A) (A) (A) (A) (A) (A) (A) (A)
                 (A) (A) (A) (A) (A) (A) (A) (A) (A) (A) (A) (A)
                 (A) (A) (A) (A) (A) (A) (A)
       Virtual   (A) (A) (A) (A) (A) (A) (A) (A) (A) (A) (A) (A)
                 (A) (A) (A) (A) (A) (A) (A) (A) (A) (A) (A) (A)
                 (A) (A) (A) (A) (A) (A) (A) (A) (A) (A) (A) (A)
                 (A) (A) (A) (A) (A) (A) (A) (A) (A) (A) (A) (A)
                 (A) (A) (A) (A) (A) (A) (A) (A) (A) (A) (A) (A)
                 (A) (A) (A) (A) (A) (A) (A) (A) (A) (A) (A) (A)
                 (A) (A) (A) (A) (A) (A) (A) (A) (A) (A) (A) (A)
                 (A) (A) (A) (A) (A) (A) (A) (A) (A) (A) (A) (A)
                 (A) (A) (A) (A) (A) (A) (A) (A) (A) (A) (A) (A)
                 (A) (A) (A) (A) (A) (A) (A) (A) (A) (A) (A) (A)
                 (A) (A) (A) (A) (A) (A) (A) (A) (A) (A) (A) (A)
                 (A) (A) (A) (A) (A) (A) (A) (A) (A) (A) (A) (A)
                 (A) (A) (A) (A) (A) (A) (A) (A) (A) (A) (A) (A)
                 (A) (A) (A) (A) (A) (A) (A) (A) (A) (A) (A) (A)
                 (A) (A) (A) (A) (A) (A) (A) (A) (A) (A) (A) (A)
                 (A) (A) (A) (A) (A) (A) (A) (A) (A) (A) (A) (A)
                 (A) (A) (A) (A) (A) (A) (A) (A) (A) (A) (A) (A)
                 (A) (A) (A) (A) (A) (A) (A) (A) (A) (A) (A) (A)
 The electronic state of the initial guess is 1-A.
 Requested convergence on RMS density matrix=1.00D-08 within 128 cycles.
 Requested convergence on MAX density matrix=1.00D-06.
 Requested convergence on             energy=1.00D-06.
 No special actions if energy rises.
 Error on total polarization charges =  0.01189
 SCF Done:  E(RmPW1PW91) =  -610.643563309     A.U. after   12 cycles
             Convg  =    0.4185D-08             -V/T =  2.0090
 Range of M.O.s used for correlation:     1   259
 NBasis=   259 NAE=    43 NBE=    43 NFC=     0 NFV=     0
 NROrb=    259 NOA=    43 NOB=    43 NVA=   216 NVB=   216

 **** Warning!!: The largest alpha MO coefficient is  0.52749610D+02

 NEqPCM:  Using equilibrium solvation (IEInf=0, Eps=  78.3553, EpsInf=   1.7778)
          Differentiating once with respect to magnetic field using GIAOs.
          Electric field/nuclear overlap derivatives assumed to be zero.
 FoFCou: FMM=F IPFlag=           0 FMFlag=    10101102 FMFlg1=           0
         NFxFlg=    40000000 DoJE=F BraDBF=F KetDBF=T FulRan=T
         Omega=  0.000000  0.000000  1.000000  0.000000  0.000000 ICntrl=    6100 IOpCl=  0
         NMat0=    1 NMatS0=    1 NMatT0=    0 NMatD0=    1 NMtDS0=    0 NMtDT0=    0
         I1Cent=           7 NGrid=        1541.
 Symmetry not used in FoFCou.
          There are     3 degrees of freedom in the 1st order CPHF.  IDoFFX=0.
      3 vectors produced by pass  0 Test12= 3.10D-13 3.33D-08 XBig12= 2.36D+01 1.15D+00.
 AX will form     3 AO Fock derivatives at one time.
      3 vectors produced by pass  1 Test12= 3.10D-13 3.33D-08 XBig12= 6.06D-02 3.72D-02.
      3 vectors produced by pass  2 Test12= 3.10D-13 3.33D-08 XBig12= 1.62D-04 2.37D-03.
      3 vectors produced by pass  3 Test12= 3.10D-13 3.33D-08 XBig12= 6.86D-07 1.40D-04.
      3 vectors produced by pass  4 Test12= 3.10D-13 3.33D-08 XBig12= 2.20D-09 5.98D-06.
      3 vectors produced by pass  5 Test12= 3.10D-13 3.33D-08 XBig12= 5.73D-12 4.39D-07.
 Inverted reduced A of dimension    18 with in-core refinement.
 Calculating GIAO nuclear magnetic shielding tensors.
 SCF GIAO Magnetic shielding tensor (ppm):
      1  C    Isotropic =   126.7288   Anisotropy =    43.0285
   XX=   114.3700   YX=   -11.8196   ZX=     9.1401
   XY=     3.0394   YY=   153.1412   ZY=    14.4329
   XZ=     3.7755   YZ=     4.2989   ZZ=   112.6754
   Eigenvalues:   104.9380   119.8339   155.4145
      2  C    Isotropic =   114.3814   Anisotropy =    39.6791
   XX=   106.6127   YX=     9.9801   ZX=     5.2723
   XY=     3.1584   YY=   133.7157   ZY=   -14.9846
   XZ=    -1.4340   YZ=   -15.5556   ZZ=   102.8160
   Eigenvalues:    94.8968   107.4133   140.8342
      3  C    Isotropic =    89.6926   Anisotropy =    23.1456
   XX=    91.3504   YX=   -11.8030   ZX=    14.8258
   XY=   -10.3105   YY=    86.0582   ZY=    -2.2923
   XZ=     8.8510   YZ=     9.7421   ZZ=    91.6692
   Eigenvalues:    71.6028    92.3520   105.1230
      4  C    Isotropic =   118.7588   Anisotropy =    20.3251
   XX=   121.7202   YX=     2.1590   ZX=   -10.8347
   XY=     3.1978   YY=   115.9497   ZY=    -5.0740
   XZ=   -10.5361   YZ=    -3.0524   ZZ=   118.6065
   Eigenvalues:   109.0682   114.8993   132.3089
      5  C    Isotropic =   117.7727   Anisotropy =    31.1901
   XX=   126.5370   YX=   -16.5744   ZX=     8.8779
   XY=    -3.1897   YY=   115.1174   ZY=    -7.1617
   XZ=     5.7440   YZ=   -17.9374   ZZ=   111.6638
   Eigenvalues:   100.6744   114.0777   138.5661
      6  C    Isotropic =   117.8859   Anisotropy =    23.7150
   XX=   127.3655   YX=    16.9383   ZX=     4.9622
   XY=     1.1090   YY=   114.3364   ZY=    11.6761
   XZ=    -4.5785   YZ=    11.5426   ZZ=   111.9558
   Eigenvalues:   100.1023   119.8596   133.6959
      7  O    Isotropic =   247.8143   Anisotropy =    41.6601
   XX=   220.6505   YX=   -24.1514   ZX=    15.5425
   XY=   -20.8700   YY=   257.1444   ZY=    13.3981
   XZ=    31.1931   YZ=     5.7992   ZZ=   265.6481
   Eigenvalues:   200.1951   267.6601   275.5877
      8  O    Isotropic =   259.5081   Anisotropy =   123.9221
   XX=   232.4078   YX=   -47.4693   ZX=    57.5872
   XY=   -34.0786   YY=   241.5949   ZY=    23.3195
   XZ=    67.6433   YZ=    48.4654   ZZ=   304.5217
   Eigenvalues:   160.8133   275.5882   342.1229
      9  O    Isotropic =   289.5915   Anisotropy =    33.6531
   XX=   279.0660   YX=   -14.4455   ZX=     4.8952
   XY=     4.8403   YY=   308.7426   ZY=     6.1821
   XZ=    19.8738   YZ=    13.9499   ZZ=   280.9659
   Eigenvalues:   265.0986   291.6490   312.0269
     10  O    Isotropic =   302.5618   Anisotropy =    41.8165
   XX=   288.6106   YX=    15.4613   ZX=    -4.0822
   XY=    25.6109   YY=   306.7341   ZY=   -11.6317
   XZ=   -30.0814   YZ=     3.7850   ZZ=   312.3407
   Eigenvalues:   271.3061   305.9398   330.4395
     11  O    Isotropic =   285.6176   Anisotropy =    47.5944
   XX=   258.3107   YX=    -3.3698   ZX=    15.4347
   XY=    -2.1574   YY=   290.8455   ZY=     0.4979
   XZ=    24.8040   YZ=   -15.7820   ZZ=   307.6967
   Eigenvalues:   251.1519   288.3538   317.3472
     12  H    Isotropic =    27.7567   Anisotropy =     7.6470
   XX=    26.1965   YX=    -1.4460   ZX=     1.6295
   XY=    -1.6852   YY=    28.8987   ZY=    -4.0420
   XZ=     2.3187   YZ=    -2.6953   ZZ=    28.1750
   Eigenvalues:    24.8073    25.6081    32.8547
     13  H    Isotropic =    27.9451   Anisotropy =    11.0589
   XX=    33.7453   YX=    -3.4625   ZX=    -0.1868
   XY=    -3.4107   YY=    26.8387   ZY=     1.3891
   XZ=    -1.6226   YZ=     1.3434   ZZ=    23.2513
   Eigenvalues:    22.7831    25.7345    35.3177
     14  H    Isotropic =    27.1804   Anisotropy =     6.6408
   XX=    26.1227   YX=    -1.8611   ZX=    -2.1534
   XY=    -0.6023   YY=    30.1629   ZY=     2.6364
   XZ=    -1.2245   YZ=     1.8253   ZZ=    25.2558
   Eigenvalues:    23.7400    26.1937    31.6076
     15  H    Isotropic =    26.2627   Anisotropy =     6.5023
   XX=    25.3278   YX=     2.0802   ZX=     0.1977
   XY=     1.1322   YY=    29.6961   ZY=    -1.4696
   XZ=     0.3020   YZ=    -2.0350   ZZ=    23.7642
   Eigenvalues:    23.0598    25.1307    30.5976
     16  H    Isotropic =    28.1791   Anisotropy =     3.1885
   XX=    29.1958   YX=     0.4256   ZX=    -1.4847
   XY=    -0.0934   YY=    25.9359   ZY=    -0.7586
   XZ=    -0.3167   YZ=    -0.6783   ZZ=    29.4054
   Eigenvalues:    25.7930    28.4395    30.3047
     17  H    Isotropic =    28.2475   Anisotropy =     2.8137
   XX=    27.3975   YX=    -1.6465   ZX=     1.2444
   XY=    -2.5926   YY=    27.6883   ZY=     0.4239
   XZ=     0.6443   YZ=     1.7069   ZZ=    29.6568
   Eigenvalues:    24.9878    29.6315    30.1233
     18  H    Isotropic =    28.0476   Anisotropy =     4.1079
   XX=    27.4950   YX=     2.3505   ZX=     1.9051
   XY=     3.1862   YY=    27.0958   ZY=     0.2571
   XZ=     1.2576   YZ=    -1.3097   ZZ=    29.5521
   Eigenvalues:    24.1183    29.2383    30.7862
     19  H    Isotropic =    29.2651   Anisotropy =    19.5880
   XX=    23.7726   YX=    -1.8407   ZX=     3.8308
   XY=    -2.3239   YY=    40.7541   ZY=    -4.5834
   XZ=     2.4604   YZ=    -4.6591   ZZ=    23.2685
   Eigenvalues:    20.1374    25.3341    42.3237
     20  H    Isotropic =    28.9678   Anisotropy =    17.6010
   XX=    31.1004   YX=     7.4017   ZX=    -2.4238
   XY=     6.5482   YY=    35.3291   ZY=     4.5478
   XZ=    -1.3801   YZ=     3.1429   ZZ=    20.4739
   Eigenvalues:    18.3712    27.8304    40.7018
     21  H    Isotropic =    30.2982   Anisotropy =    15.7262
   XX=    24.4071   YX=    -2.7114   ZX=     3.8516
   XY=    -2.5715   YY=    26.7637   ZY=    -1.3887
   XZ=     3.2584   YZ=    -1.4131   ZZ=    39.7237
   Eigenvalues:    22.3804    27.7319    40.7823
 End of Minotr Frequency-dependent properties file   721 does not exist.
 End of Minotr Frequency-dependent properties file   722 does not exist.

 **********************************************************************

            Population analysis using the SCF density.

 **********************************************************************

 Orbital symmetries:
       Occupied  (A) (A) (A) (A) (A) (A) (A) (A) (A) (A) (A) (A)
                 (A) (A) (A) (A) (A) (A) (A) (A) (A) (A) (A) (A)
                 (A) (A) (A) (A) (A) (A) (A) (A) (A) (A) (A) (A)
                 (A) (A) (A) (A) (A) (A) (A)
       Virtual   (A) (A) (A) (A) (A) (A) (A) (A) (A) (A) (A) (A)
                 (A) (A) (A) (A) (A) (A) (A) (A) (A) (A) (A) (A)
                 (A) (A) (A) (A) (A) (A) (A) (A) (A) (A) (A) (A)
                 (A) (A) (A) (A) (A) (A) (A) (A) (A) (A) (A) (A)
                 (A) (A) (A) (A) (A) (A) (A) (A) (A) (A) (A) (A)
                 (A) (A) (A) (A) (A) (A) (A) (A) (A) (A) (A) (A)
                 (A) (A) (A) (A) (A) (A) (A) (A) (A) (A) (A) (A)
                 (A) (A) (A) (A) (A) (A) (A) (A) (A) (A) (A) (A)
                 (A) (A) (A) (A) (A) (A) (A) (A) (A) (A) (A) (A)
                 (A) (A) (A) (A) (A) (A) (A) (A) (A) (A) (A) (A)
                 (A) (A) (A) (A) (A) (A) (A) (A) (A) (A) (A) (A)
                 (A) (A) (A) (A) (A) (A) (A) (A) (A) (A) (A) (A)
                 (A) (A) (A) (A) (A) (A) (A) (A) (A) (A) (A) (A)
                 (A) (A) (A) (A) (A) (A) (A) (A) (A) (A) (A) (A)
                 (A) (A) (A) (A) (A) (A) (A) (A) (A) (A) (A) (A)
                 (A) (A) (A) (A) (A) (A) (A) (A) (A) (A) (A) (A)
                 (A) (A) (A) (A) (A) (A) (A) (A) (A) (A) (A) (A)
                 (A) (A) (A) (A) (A) (A) (A) (A) (A) (A) (A) (A)
 The electronic state is 1-A.
 Alpha  occ. eigenvalues --  -19.27919 -19.27031 -19.26994 -19.26579 -19.26163
 Alpha  occ. eigenvalues --  -10.35976 -10.31973 -10.31850 -10.31475 -10.31334
 Alpha  occ. eigenvalues --  -10.30741  -1.14394  -1.08497  -1.07160  -1.05665
 Alpha  occ. eigenvalues --   -1.04120  -0.82267  -0.81290  -0.70541  -0.68403
 Alpha  occ. eigenvalues --   -0.65256  -0.60435  -0.57850  -0.56847  -0.54482
 Alpha  occ. eigenvalues --   -0.52193  -0.50835  -0.48523  -0.47099  -0.46549
 Alpha  occ. eigenvalues --   -0.45003  -0.43442  -0.42451  -0.39337  -0.38973
 Alpha  occ. eigenvalues --   -0.38504  -0.36648  -0.35577  -0.34153  -0.32481
 Alpha  occ. eigenvalues --   -0.31285  -0.28671  -0.27812
 Alpha virt. eigenvalues --    0.00848   0.01315   0.01809   0.02781   0.03681
 Alpha virt. eigenvalues --    0.04323   0.04454   0.05175   0.05963   0.07838
 Alpha virt. eigenvalues --    0.08417   0.09033   0.09544   0.10264   0.11226
 Alpha virt. eigenvalues --    0.11825   0.12589   0.13321   0.13577   0.13996
 Alpha virt. eigenvalues --    0.14661   0.15545   0.15651   0.16268   0.16659
 Alpha virt. eigenvalues --    0.18006   0.18655   0.19510   0.20906   0.21457
 Alpha virt. eigenvalues --    0.22119   0.22163   0.22807   0.23307   0.24384
 Alpha virt. eigenvalues --    0.24704   0.25168   0.25536   0.26533   0.27011
 Alpha virt. eigenvalues --    0.28138   0.28599   0.29152   0.30274   0.30801
 Alpha virt. eigenvalues --    0.31261   0.32105   0.32478   0.32883   0.33773
 Alpha virt. eigenvalues --    0.34231   0.35063   0.35856   0.36440   0.36572
 Alpha virt. eigenvalues --    0.37543   0.38485   0.38916   0.40318   0.40867
 Alpha virt. eigenvalues --    0.40990   0.42168   0.42525   0.43615   0.44674
 Alpha virt. eigenvalues --    0.45637   0.64425   0.68772   0.69681   0.70984
 Alpha virt. eigenvalues --    0.71315   0.73327   0.74645   0.76960   0.78358
 Alpha virt. eigenvalues --    0.79986   0.81718   0.82426   0.83949   0.86385
 Alpha virt. eigenvalues --    0.88127   0.88724   0.93991   0.95564   0.97836
 Alpha virt. eigenvalues --    0.99729   1.02523   1.04082   1.05291   1.06123
 Alpha virt. eigenvalues --    1.06821   1.09138   1.10353   1.11770   1.14458
 Alpha virt. eigenvalues --    1.17741   1.22520   1.24660   1.25965   1.26858
 Alpha virt. eigenvalues --    1.28308   1.29340   1.31303   1.32061   1.34187
 Alpha virt. eigenvalues --    1.34613   1.36537   1.38155   1.40020   1.40630
 Alpha virt. eigenvalues --    1.43067   1.44274   1.48686   1.48913   1.49425
 Alpha virt. eigenvalues --    1.52478   1.52837   1.56314   1.57350   1.58962
 Alpha virt. eigenvalues --    1.62505   1.63078   1.66724   1.67045   1.69681
 Alpha virt. eigenvalues --    1.70985   1.72779   1.75045   1.77412   1.79956
 Alpha virt. eigenvalues --    1.81503   1.82453   1.83654   1.85186   1.86427
 Alpha virt. eigenvalues --    1.87816   1.93859   1.95114   1.96085   1.97984
 Alpha virt. eigenvalues --    1.99782   2.01643   2.02148   2.05489   2.06781
 Alpha virt. eigenvalues --    2.08896   2.11003   2.12947   2.15913   2.19053
 Alpha virt. eigenvalues --    2.20169   2.21244   2.25366   2.28561   2.30018
 Alpha virt. eigenvalues --    2.33360   2.35056   2.36982   2.41773   2.42693
 Alpha virt. eigenvalues --    2.44071   2.47076   2.49070   2.49950   2.52662
 Alpha virt. eigenvalues --    2.54951   2.59301   2.60035   2.62007   2.63453
 Alpha virt. eigenvalues --    2.63798   2.65798   2.67579   2.69304   2.70688
 Alpha virt. eigenvalues --    2.71122   2.73049   2.74490   2.77817   2.78791
 Alpha virt. eigenvalues --    2.85706   2.86625   2.88351   2.89237   2.92585
 Alpha virt. eigenvalues --    2.94135   2.95475   2.97479   2.99375   3.03886
 Alpha virt. eigenvalues --    3.06673   3.08399   3.11894   3.22212   3.28199
 Alpha virt. eigenvalues --    3.34458   3.37361   3.42231   3.46953   3.50339
 Alpha virt. eigenvalues --    3.51973   3.52382   3.54656   3.55482   3.61620
 Alpha virt. eigenvalues --    4.29310   4.35528   4.41022   4.42027   4.50654
 Alpha virt. eigenvalues --    4.59776   4.67507   4.73484   4.79038   4.91283
 Alpha virt. eigenvalues --    5.01743
          Condensed to atoms (all electrons):
              1          2          3          4          5          6
     1  C    5.433564  -0.023432  -0.224238   0.082097   0.097562  -0.181660
     2  C   -0.023432   6.456990  -0.404650  -0.220610   0.102075  -0.203750
     3  C   -0.224238  -0.404650   6.142018   0.003667  -0.554649   0.172468
     4  C    0.082097  -0.220610   0.003667   6.065622  -0.179046  -0.096924
     5  C    0.097562   0.102075  -0.554649  -0.179046   6.590882  -0.483182
     6  C   -0.181660  -0.203750   0.172468  -0.096924  -0.483182   6.434800
     7  O   -0.051734   0.147814   0.316319  -0.050470  -0.081412  -0.133027
     8  O    0.183958  -0.165289   0.326233   0.020485  -0.142357   0.053109
     9  O    0.010339  -0.105185   0.002341  -0.148281   0.034658   0.287862
    10  O    0.004381   0.013132   0.065534   0.340110  -0.190118  -0.131705
    11  O    0.000318  -0.004923  -0.051691  -0.083960   0.247459   0.026931
    12  H    0.456274  -0.109628   0.010970   0.003602   0.010549  -0.004734
    13  H    0.381344  -0.024837  -0.006014  -0.000786   0.001810   0.023931
    14  H    0.022435   0.300228   0.004713   0.017637   0.004967  -0.008701
    15  H    0.002409   0.012739   0.368088   0.012180  -0.024094   0.013719
    16  H    0.006115  -0.001509  -0.022957   0.387907  -0.043260  -0.005593
    17  H    0.016544   0.001528  -0.068272  -0.060437   0.455404  -0.004759
    18  H    0.038996  -0.111399  -0.004398  -0.061459   0.017585   0.430293
    19  H   -0.003676  -0.028381  -0.001373   0.016621  -0.006022   0.034767
    20  H    0.000150   0.013656  -0.010608   0.009776   0.046118  -0.064983
    21  H    0.000417   0.003240  -0.041067  -0.046183   0.072627   0.004336
              7          8          9         10         11         12
     1  C   -0.051734   0.183958   0.010339   0.004381   0.000318   0.456274
     2  C    0.147814  -0.165289  -0.105185   0.013132  -0.004923  -0.109628
     3  C    0.316319   0.326233   0.002341   0.065534  -0.051691   0.010970
     4  C   -0.050470   0.020485  -0.148281   0.340110  -0.083960   0.003602
     5  C   -0.081412  -0.142357   0.034658  -0.190118   0.247459   0.010549
     6  C   -0.133027   0.053109   0.287862  -0.131705   0.026931  -0.004734
     7  O    8.324036  -0.067675   0.011549   0.000733  -0.001459   0.011220
     8  O   -0.067675   8.314516   0.000016  -0.005675   0.001852  -0.049921
     9  O    0.011549   0.000016   8.296412  -0.012871  -0.000313   0.000175
    10  O    0.000733  -0.005675  -0.012871   8.275323   0.006314   0.000160
    11  O   -0.001459   0.001852  -0.000313   0.006314   8.210637   0.000014
    12  H    0.011220  -0.049921   0.000175   0.000160   0.000014   0.524271
    13  H   -0.006101  -0.047268  -0.000086  -0.000042   0.000036  -0.036547
    14  H   -0.033117   0.008967  -0.002713  -0.000394  -0.000018   0.001638
    15  H   -0.053912  -0.041296   0.000028  -0.000710  -0.003248  -0.000242
    16  H    0.006347  -0.001097  -0.006061  -0.052280  -0.011193   0.000000
    17  H    0.011258  -0.006100  -0.000425  -0.001056  -0.058875  -0.000076
    18  H    0.010148  -0.001937  -0.048682  -0.002583  -0.000427   0.002107
    19  H   -0.000805   0.000147   0.240211   0.000497  -0.000003   0.000049
    20  H    0.000136   0.000057   0.019687   0.235676  -0.000546  -0.000002
    21  H    0.004961  -0.000450  -0.000104  -0.002236   0.248142   0.000000
             13         14         15         16         17         18
     1  C    0.381344   0.022435   0.002409   0.006115   0.016544   0.038996
     2  C   -0.024837   0.300228   0.012739  -0.001509   0.001528  -0.111399
     3  C   -0.006014   0.004713   0.368088  -0.022957  -0.068272  -0.004398
     4  C   -0.000786   0.017637   0.012180   0.387907  -0.060437  -0.061459
     5  C    0.001810   0.004967  -0.024094  -0.043260   0.455404   0.017585
     6  C    0.023931  -0.008701   0.013719  -0.005593  -0.004759   0.430293
     7  O   -0.006101  -0.033117  -0.053912   0.006347   0.011258   0.010148
     8  O   -0.047268   0.008967  -0.041296  -0.001097  -0.006100  -0.001937
     9  O   -0.000086  -0.002713   0.000028  -0.006061  -0.000425  -0.048682
    10  O   -0.000042  -0.000394  -0.000710  -0.052280  -0.001056  -0.002583
    11  O    0.000036  -0.000018  -0.003248  -0.011193  -0.058875  -0.000427
    12  H   -0.036547   0.001638  -0.000242   0.000000  -0.000076   0.002107
    13  H    0.539103  -0.002211   0.000649   0.000002  -0.000026   0.000102
    14  H   -0.002211   0.486363   0.000018  -0.000061   0.000010   0.002254
    15  H    0.000649   0.000018   0.524192  -0.000231  -0.000208   0.000006
    16  H    0.000002  -0.000061  -0.000231   0.555674   0.003960   0.004451
    17  H   -0.000026   0.000010  -0.000208   0.003960   0.506985   0.001801
    18  H    0.000102   0.002254   0.000006   0.004451   0.001801   0.540466
    19  H   -0.000021   0.000961   0.000000   0.000130   0.000007  -0.006306
    20  H    0.000000  -0.000005   0.000005  -0.004002   0.000014  -0.000628
    21  H    0.000000   0.000002  -0.000367   0.004895   0.006530   0.000012
             19         20         21
     1  C   -0.003676   0.000150   0.000417
     2  C   -0.028381   0.013656   0.003240
     3  C   -0.001373  -0.010608  -0.041067
     4  C    0.016621   0.009776  -0.046183
     5  C   -0.006022   0.046118   0.072627
     6  C    0.034767  -0.064983   0.004336
     7  O   -0.000805   0.000136   0.004961
     8  O    0.000147   0.000057  -0.000450
     9  O    0.240211   0.019687  -0.000104
    10  O    0.000497   0.235676  -0.002236
    11  O   -0.000003  -0.000546   0.248142
    12  H    0.000049  -0.000002   0.000000
    13  H   -0.000021   0.000000   0.000000
    14  H    0.000961  -0.000005   0.000002
    15  H    0.000000   0.000005  -0.000367
    16  H    0.000130  -0.004002   0.004895
    17  H    0.000007   0.000014   0.006530
    18  H   -0.006306  -0.000628   0.000012
    19  H    0.359440  -0.001275   0.000001
    20  H   -0.001275   0.370101  -0.000014
    21  H    0.000001  -0.000014   0.370346
 Mulliken atomic charges:
              1
     1  C   -0.252159
     2  C    0.352189
     3  C   -0.022432
     4  C   -0.011547
     5  C    0.022445
     6  C   -0.163197
     7  O   -0.364807
     8  O   -0.380275
     9  O   -0.578557
    10  O   -0.542190
    11  O   -0.525047
    12  H    0.180123
    13  H    0.176963
    14  H    0.197026
    15  H    0.190278
    16  H    0.178764
    17  H    0.196193
    18  H    0.189597
    19  H    0.395032
    20  H    0.386687
    21  H    0.374913
 Sum of Mulliken atomic charges =   0.00000
 Mulliken charges with hydrogens summed into heavy atoms:
              1
     1  C    0.104926
     2  C    0.549215
     3  C    0.167846
     4  C    0.167217
     5  C    0.218638
     6  C    0.026400
     7  O   -0.364807
     8  O   -0.380275
     9  O   -0.183524
    10  O   -0.155503
    11  O   -0.150133
 Sum of Mulliken charges with hydrogens summed into heavy atoms =   0.00000
 Electronic spatial extent (au):  <R**2>=           1512.8532
 Charge=              0.0000 electrons
 Dipole moment (field-independent basis, Debye):
    X=             -2.4100    Y=              5.4513    Z=              0.4582  Tot=              5.9779
 Quadrupole moment (field-independent basis, Debye-Ang):
   XX=            -69.4988   YY=            -59.0906   ZZ=            -66.5971
   XY=              0.0130   XZ=              2.9494   YZ=             -8.1581
 Traceless Quadrupole moment (field-independent basis, Debye-Ang):
   XX=             -4.4366   YY=              5.9716   ZZ=             -1.5349
   XY=              0.0130   XZ=              2.9494   YZ=             -8.1581
 Octapole moment (field-independent basis, Debye-Ang**2):
  XXX=             -7.9287  YYY=             50.2871  ZZZ=              1.6509  XYY=            -10.8970
  XXY=             23.3743  XXZ=              9.8457  XZZ=              6.4596  YZZ=             -4.3215
  YYZ=              0.5160  XYZ=             -5.5305
 Hexadecapole moment (field-independent basis, Debye-Ang**3):
 XXXX=           -854.9538 YYYY=           -687.2696 ZZZZ=           -235.1284 XXXY=             24.4466
 XXXZ=              9.9391 YYYX=             39.2599 YYYZ=            -35.9580 ZZZX=             13.4637
 ZZZY=            -15.8688 XXYY=           -273.9704 XXZZ=           -192.6521 YYZZ=           -149.2343
 XXYZ=            -24.7053 YYXZ=             -9.4491 ZZXY=            -18.6439
 N-N= 7.167631706308D+02 E-N=-2.863384875102D+03  KE= 6.052002548096D+02
 1\1\GINC-COMPUTE-8-21\SP\RmPW1PW91\6-31+G(d,p)\C6H10O5\MMARCARINO.IQUI
 R\12-Apr-2019\0\\# mpw1pw91/6-31+g** nmr scrf=(pcm,solvent=water)\\com
 ment\\0,1\C,0,-2.125374,0.624199,-0.623453\C,0,-1.096594,1.015268,0.43
 6361\C,0,-0.9569,-1.184127,0.20673\C,0,1.21862,0.050614,0.044163\C,0,0
 .516626,-1.277825,-0.266385\C,0,0.309979,1.269248,-0.172339\O,0,-1.083
 381,-0.201831,1.220771\O,0,-1.79371,-0.75362,-0.871554\O,0,1.000792,2.
 359483,0.44259\O,0,2.40397,0.157886,-0.73\O,0,1.195197,-2.385658,0.316
 223\H,0,-2.0413,1.186033,-1.557439\H,0,-3.148325,0.705135,-0.237211\H,
 0,-1.400629,1.834703,1.0892\H,0,-1.304475,-2.145319,0.596698\H,0,1.464
 388,0.045326,1.118355\H,0,0.52551,-1.463763,-1.34397\H,0,0.222061,1.45
 0919,-1.251729\H,0,0.667227,3.185775,0.058531\H,0,2.773829,1.032889,-0
 .519919\H,0,1.260633,-2.22603,1.272784\\Version=EM64L-G09RevC.01\State
 =1-A\HF=-610.6435633\RMSD=4.185e-09\Dipole=-0.9481854,2.1447227,0.1802
 733\Quadrupole=-3.2985343,4.4397176,-1.1411833,0.0096918,2.1927884,-6.
 0653272\PG=C01 [X(C6H10O5)]\\@


 SATCHEL PAIGE'S GUIDE TO LONGEVITY

    1.  AVOID FRIED MEATS, WHICH ANGRY UP THE BLOOD.

    2.  IF YOUR STOMACH DISPUTES YOU, LIE DOWN AND PACIFY IT WITH COOL
        THOUGHTS.

    3.  KEEP THE JUICES FLOWING BY JANGLING AROUND GENTLY AS YOU MOVE.

    4.  GO VERY LIGHT ON THE VICES, SUCH AS CARRYING ON IN SOCIETY.
        THE SOCIAL RUMBLE AIN'T RESTFUL.

    5.  AVOID RUNNING AT ALL TIMES.

    6.  DON'T LOOK BACK.  SOMETHING MAY BE GAINING ON YOU.
 Job cpu time:  0 days  0 hours 18 minutes 28.0 seconds.
 File lengths (MBytes):  RWF=     83 Int=      0 D2E=      0 Chk=      5 Scr=      1
 Normal termination of Gaussian 09 at Fri Apr 12 10:07:30 2019.
