 Entering Gaussian System, Link 0=g09
 Input=/home/asarotti.iquir/SCF3/01_RSR_Levo06_OPTB_energy_b3lyp_smd.gjc
 Output=/home/asarotti.iquir/SCF3/01_RSR_Levo06_OPTB_energy_b3lyp_smd.log
 Initial command:
 /share/apps/Gaussian09/EM64T.SSE4.2-enabled/g09/l1.exe /tmp/Gau-15121.inp -scrdir=/tmp/
 Entering Link 1 = /share/apps/Gaussian09/EM64T.SSE4.2-enabled/g09/l1.exe PID=     15122.
  
 Copyright (c) 1988,1990,1992,1993,1995,1998,2003,2009,2011,
            Gaussian, Inc.  All Rights Reserved.
  
 This is part of the Gaussian(R) 09 program.  It is based on
 the Gaussian(R) 03 system (copyright 2003, Gaussian, Inc.),
 the Gaussian(R) 98 system (copyright 1998, Gaussian, Inc.),
 the Gaussian(R) 94 system (copyright 1995, Gaussian, Inc.),
 the Gaussian 92(TM) system (copyright 1992, Gaussian, Inc.),
 the Gaussian 90(TM) system (copyright 1990, Gaussian, Inc.),
 the Gaussian 88(TM) system (copyright 1988, Gaussian, Inc.),
 the Gaussian 86(TM) system (copyright 1986, Carnegie Mellon
 University), and the Gaussian 82(TM) system (copyright 1983,
 Carnegie Mellon University). Gaussian is a federally registered
 trademark of Gaussian, Inc.
  
 This software contains proprietary and confidential information,
 including trade secrets, belonging to Gaussian, Inc.
  
 This software is provided under written license and may be
 used, copied, transmitted, or stored only in accord with that
 written license.
  
 The following legend is applicable only to US Government
 contracts under FAR:
  
                    RESTRICTED RIGHTS LEGEND
  
 Use, reproduction and disclosure by the US Government is
 subject to restrictions as set forth in subparagraphs (a)
 and (c) of the Commercial Computer Software - Restricted
 Rights clause in FAR 52.227-19.
  
 Gaussian, Inc.
 340 Quinnipiac St., Bldg. 40, Wallingford CT 06492
  
  
 ---------------------------------------------------------------
 Warning -- This program may not be used in any manner that
 competes with the business of Gaussian, Inc. or will provide
 assistance to any competitor of Gaussian, Inc.  The licensee
 of this program is prohibited from giving any competitor of
 Gaussian, Inc. access to this program.  By using this program,
 the user acknowledges that Gaussian, Inc. is engaged in the
 business of creating and licensing software in the field of
 computational chemistry and represents and warrants to the
 licensee that it is not a competitor of Gaussian, Inc. and that
 it will not use this program in any manner prohibited above.
 ---------------------------------------------------------------
  

 Cite this work as:
 Gaussian 09, Revision C.01,
 M. J. Frisch, G. W. Trucks, H. B. Schlegel, G. E. Scuseria, 
 M. A. Robb, J. R. Cheeseman, G. Scalmani, V. Barone, B. Mennucci, 
 G. A. Petersson, H. Nakatsuji, M. Caricato, X. Li, H. P. Hratchian, 
 A. F. Izmaylov, J. Bloino, G. Zheng, J. L. Sonnenberg, M. Hada, 
 M. Ehara, K. Toyota, R. Fukuda, J. Hasegawa, M. Ishida, T. Nakajima, 
 Y. Honda, O. Kitao, H. Nakai, T. Vreven, J. A. Montgomery, Jr., 
 J. E. Peralta, F. Ogliaro, M. Bearpark, J. J. Heyd, E. Brothers, 
 K. N. Kudin, V. N. Staroverov, T. Keith, R. Kobayashi, J. Normand, 
 K. Raghavachari, A. Rendell, J. C. Burant, S. S. Iyengar, J. Tomasi, 
 M. Cossi, N. Rega, J. M. Millam, M. Klene, J. E. Knox, J. B. Cross, 
 V. Bakken, C. Adamo, J. Jaramillo, R. Gomperts, R. E. Stratmann, 
 O. Yazyev, A. J. Austin, R. Cammi, C. Pomelli, J. W. Ochterski, 
 R. L. Martin, K. Morokuma, V. G. Zakrzewski, G. A. Voth, 
 P. Salvador, J. J. Dannenberg, S. Dapprich, A. D. Daniels, 
 O. Farkas, J. B. Foresman, J. V. Ortiz, J. Cioslowski, 
 and D. J. Fox, Gaussian, Inc., Wallingford CT, 2010.
 
 ******************************************
 Gaussian 09:  EM64L-G09RevC.01 23-Sep-2011
                15-Apr-2019 
 ******************************************
 %nprocshared=4
 Will use up to    4 processors via shared memory.
 -----------------------------------------------------------
 # B3LYP/6-31+G** test scrf=(pcm,solvent=water,smd,dovacuum)
 -----------------------------------------------------------
 1/38=1/1;
 2/12=2,17=6,18=5,40=1/2;
 3/5=1,6=6,7=111,11=2,16=1,25=1,30=1,70=32101,72=1,74=-5/1,2,3;
 4//1;
 5/5=2,38=5,53=1/2;
 6/7=2,8=2,9=2,10=2,28=1/1;
 99/5=1,9=1/99;
 -------
 comment
 -------
 Charge =  0 Multiplicity = 1
 Symbolic Z-Matrix:
 6                    -2.15368   0.50528  -0.64624 
 6                    -1.13673   0.99159   0.38905 
 6                    -0.91358  -1.20877   0.27186 
 6                     1.19686   0.11258   0.07357 
 6                     0.53894  -1.22939  -0.2602 
 6                     0.25754   1.28928  -0.21959 
 8                    -1.06856  -0.18033   1.23453 
 8                    -1.81493  -0.88656  -0.7907 
 8                     0.75056   2.49537   0.35761 
 8                     2.42166   0.24129  -0.65863 
 8                     1.23457  -2.30533   0.36026 
 1                    -2.07147   1.00136  -1.61701 
 1                    -3.17918   0.60261  -0.27148 
 1                    -1.47711   1.83138   0.99574 
 1                    -1.18692  -2.16576   0.72363 
 1                     1.3969    0.11407   1.14994 
 1                     0.509    -1.36815  -1.35001 
 1                     0.17394   1.40826  -1.31017 
 1                     1.62207   2.65513  -0.04267 
 1                     3.12776   0.46561  -0.0349 
 1                     2.16254  -2.22341   0.0817 
 
                          Input orientation:                          
 ---------------------------------------------------------------------
 Center     Atomic      Atomic             Coordinates (Angstroms)
 Number     Number       Type             X           Y           Z
 ---------------------------------------------------------------------
      1          6           0       -2.153675    0.505279   -0.646243
      2          6           0       -1.136732    0.991585    0.389046
      3          6           0       -0.913581   -1.208770    0.271859
      4          6           0        1.196862    0.112580    0.073571
      5          6           0        0.538939   -1.229394   -0.260203
      6          6           0        0.257540    1.289279   -0.219591
      7          8           0       -1.068564   -0.180326    1.234530
      8          8           0       -1.814929   -0.886556   -0.790697
      9          8           0        0.750557    2.495366    0.357607
     10          8           0        2.421659    0.241291   -0.658627
     11          8           0        1.234573   -2.305330    0.360260
     12          1           0       -2.071472    1.001360   -1.617012
     13          1           0       -3.179178    0.602612   -0.271476
     14          1           0       -1.477114    1.831377    0.995741
     15          1           0       -1.186924   -2.165760    0.723631
     16          1           0        1.396895    0.114072    1.149944
     17          1           0        0.508996   -1.368152   -1.350006
     18          1           0        0.173936    1.408255   -1.310173
     19          1           0        1.622069    2.655127   -0.042673
     20          1           0        3.127761    0.465610   -0.034899
     21          1           0        2.162539   -2.223413    0.081701
 ---------------------------------------------------------------------
                    Distance matrix (angstroms):
                    1          2          3          4          5
     1  C    0.000000
     2  C    1.530519   0.000000
     3  C    2.306233   2.214744   0.000000
     4  C    3.449412   2.513530   2.497850   0.000000
     5  C    3.226188   2.856947   1.547039   1.531392   0.000000
     6  C    2.571118   1.550179   2.802373   1.533913   2.534669
     7  O    2.277022   1.446674   1.417199   2.562377   2.432866
     8  O    1.439729   2.319301   1.430131   3.288787   2.437141
     9  O    3.660973   2.413339   4.061691   2.440806   3.781575
    10  O    4.582960   3.784535   3.753972   1.432762   2.422043
    11  O    4.515838   4.061227   2.413467   2.435139   1.423559
    12  H    1.093273   2.213166   3.129412   3.785500   3.692078
    13  H    1.096166   2.181553   2.951143   4.416890   4.144969
    14  H    2.216389   1.090500   3.175542   3.309805   3.874298
    15  H    3.153666   3.175420   1.092998   3.360929   2.196204
    16  H    3.998234   2.787160   2.803434   1.094803   2.128263
    17  H    3.330892   3.361708   2.163232   2.166171   1.099009
    18  H    2.583397   2.186049   3.245665   2.154042   2.862317
    19  H    4.386614   3.250344   4.632294   2.580476   4.038563
    20  H    5.316849   4.317671   4.385213   1.965901   3.102547
    21  H    5.158039   4.616910   3.244715   2.527738   1.934179
                    6          7          8          9         10
     6  C    0.000000
     7  O    2.456167   0.000000
     8  O    3.058684   2.270983   0.000000
     9  O    1.425086   3.352241   4.397467   0.000000
    10  O    2.444267   3.992926   4.386133   2.984320   0.000000
    11  O    3.769885   3.253372   3.554868   4.825035   2.988743
    12  H    2.731296   3.245535   2.076737   3.754334   4.656655
    13  H    3.505030   2.708457   2.085279   4.406935   5.625817
    14  H    2.186304   2.066611   3.269960   2.410522   4.523907
    15  H    3.861792   2.053527   2.079409   5.061018   4.552626
    16  H    2.134214   2.484414   3.883704   2.591546   2.082608
    17  H    2.898794   3.252607   2.438317   4.230965   2.593567
    18  H    1.100234   3.246985   3.080844   2.072629   2.615067
    19  H    1.938757   4.112244   4.991594   0.972256   2.616362
    20  H    2.991774   4.431459   5.179746   3.150408   0.968471
    21  H    4.007344   3.992899   4.285851   4.933223   2.586502
                   11         12         13         14         15
    11  O    0.000000
    12  H    5.076784   0.000000
    13  H    5.323196   1.787870   0.000000
    14  H    4.986926   2.805115   2.452086   0.000000
    15  H    2.452584   4.036296   3.552914   4.016884   0.000000
    16  H    2.550187   4.524698   4.816591   3.351543   3.472103
    17  H    2.080811   3.513502   4.318537   4.436682   2.795048
    18  H    4.207851   2.302514   3.601573   2.867444   4.331499
    19  H    4.991858   4.342319   5.226580   3.370727   5.631928
    20  H    3.379115   5.460965   6.312861   4.912475   5.110380
    21  H    0.972330   5.586738   6.053519   5.524841   3.410909
                   16         17         18         19         20
    16  H    0.000000
    17  H    3.038931   0.000000
    18  H    3.036892   2.796835   0.000000
    19  H    2.816025   4.374337   2.293106   0.000000
    20  H    2.126812   3.456895   3.352609   2.657283   0.000000
    21  H    2.681639   2.348502   4.368165   4.909962   2.859387
                   21
    21  H    0.000000
 Stoichiometry    C6H10O5
 Framework group  C1[X(C6H10O5)]
 Deg. of freedom    57
 Full point group                 C1      NOp   1
 Largest Abelian subgroup         C1      NOp   1
 Largest concise Abelian subgroup C1      NOp   1
                         Standard orientation:                         
 ---------------------------------------------------------------------
 Center     Atomic      Atomic             Coordinates (Angstroms)
 Number     Number       Type             X           Y           Z
 ---------------------------------------------------------------------
      1          6           0       -2.153675    0.505278   -0.646243
      2          6           0       -1.136732    0.991585    0.389046
      3          6           0       -0.913581   -1.208770    0.271859
      4          6           0        1.196862    0.112580    0.073571
      5          6           0        0.538939   -1.229394   -0.260203
      6          6           0        0.257540    1.289279   -0.219591
      7          8           0       -1.068564   -0.180326    1.234530
      8          8           0       -1.814929   -0.886557   -0.790697
      9          8           0        0.750556    2.495366    0.357607
     10          8           0        2.421659    0.241292   -0.658627
     11          8           0        1.234574   -2.305330    0.360260
     12          1           0       -2.071472    1.001359   -1.617012
     13          1           0       -3.179178    0.602611   -0.271476
     14          1           0       -1.477115    1.831376    0.995741
     15          1           0       -1.186923   -2.165760    0.723631
     16          1           0        1.396895    0.114072    1.149944
     17          1           0        0.508997   -1.368152   -1.350006
     18          1           0        0.173936    1.408255   -1.310173
     19          1           0        1.622068    2.655128   -0.042673
     20          1           0        3.127761    0.465611   -0.034899
     21          1           0        2.162540   -2.223412    0.081701
 ---------------------------------------------------------------------
 Rotational constants (GHZ):      1.4102409      1.2559582      0.7979476
 Standard basis: 6-31+G(d,p) (6D, 7F)
 There are   259 symmetry adapted basis functions of A   symmetry.
 Integral buffers will be    131072 words long.
 Raffenetti 2 integral format.
 Two-electron integral symmetry is turned on.
   259 basis functions,   422 primitive gaussians,   259 cartesian basis functions
    43 alpha electrons       43 beta electrons
       nuclear repulsion energy       716.7688438738 Hartrees.
 NAtoms=   21 NActive=   21 NUniq=   21 SFac= 1.00D+00 NAtFMM=   60 NAOKFM=F Big=F
 ------------------------------------------------------------------------------
 Polarizable Continuum Model (PCM)
 =================================
 Model                : C-PCM.
 Atomic radii         : SMD-Coulomb.
 Polarization charges : Total charges.
 Charge compensation  : None.
 Solution method      : Matrix inversion.
 Cavity type          : VdW (van der Waals Surface) (Alpha=1.000).
 Cavity algorithm     : GePol (No added spheres)
                        Default sphere list used, NSphG=   21.
                        Lebedev-Laikov grids with approx.  5.0 points / Ang**2.
                        Smoothing algorithm: Karplus/York (Gamma=1.0000).
                        Polarization charges: spherical gaussians, with
                                              point-specific exponents (IZeta= 3).
                        Self-potential: point-specific (ISelfS= 7).
                        Self-field    : sphere-specific E.n sum rule (ISelfD= 2).
 Solvent              : Water, Eps=  78.355300 Eps(inf)=   1.777849
 ------------------------------------------------------------------------------
 ------------------------------------------------------------------------------
 Atomic radii for non-electrostatic terms: SMD-CDS.
 ------------------------------------------------------------------------------
 Nuclear repulsion after PCM non-electrostatic terms =      716.7741701740 Hartrees.
 One-electron integrals computed using PRISM.
 NBasis=   259 RedAO= T  NBF=   259
 NBsUse=   259 1.00D-06 NBFU=   259
 Harris functional with IExCor=  402 diagonalized for initial guess.
 ExpMin= 4.38D-02 ExpMax= 5.48D+03 ExpMxC= 8.25D+02 IAcc=2 IRadAn=         4 AccDes= 0.00D+00
 HarFok:  IExCor=  402 AccDes= 0.00D+00 IRadAn=         4 IDoV= 1
 ScaDFX=  1.000000  1.000000  1.000000  1.000000
 FoFCou: FMM=F IPFlag=           0 FMFlag=      100000 FMFlg1=           0
         NFxFlg=           0 DoJE=T BraDBF=F KetDBF=T FulRan=T
         Omega=  0.000000  0.000000  1.000000  0.000000  0.000000 ICntrl=     500 IOpCl=  0
         NMat0=    1 NMatS0=    1 NMatT0=    0 NMatD0=    1 NMtDS0=    0 NMtDT0=    0
         I1Cent=           4 NGrid=           0.
 Petite list used in FoFCou.
 Initial guess orbital symmetries:
       Occupied  (A) (A) (A) (A) (A) (A) (A) (A) (A) (A) (A) (A)
                 (A) (A) (A) (A) (A) (A) (A) (A) (A) (A) (A) (A)
                 (A) (A) (A) (A) (A) (A) (A) (A) (A) (A) (A) (A)
                 (A) (A) (A) (A) (A) (A) (A)
       Virtual   (A) (A) (A) (A) (A) (A) (A) (A) (A) (A) (A) (A)
                 (A) (A) (A) (A) (A) (A) (A) (A) (A) (A) (A) (A)
                 (A) (A) (A) (A) (A) (A) (A) (A) (A) (A) (A) (A)
                 (A) (A) (A) (A) (A) (A) (A) (A) (A) (A) (A) (A)
                 (A) (A) (A) (A) (A) (A) (A) (A) (A) (A) (A) (A)
                 (A) (A) (A) (A) (A) (A) (A) (A) (A) (A) (A) (A)
                 (A) (A) (A) (A) (A) (A) (A) (A) (A) (A) (A) (A)
                 (A) (A) (A) (A) (A) (A) (A) (A) (A) (A) (A) (A)
                 (A) (A) (A) (A) (A) (A) (A) (A) (A) (A) (A) (A)
                 (A) (A) (A) (A) (A) (A) (A) (A) (A) (A) (A) (A)
                 (A) (A) (A) (A) (A) (A) (A) (A) (A) (A) (A) (A)
                 (A) (A) (A) (A) (A) (A) (A) (A) (A) (A) (A) (A)
                 (A) (A) (A) (A) (A) (A) (A) (A) (A) (A) (A) (A)
                 (A) (A) (A) (A) (A) (A) (A) (A) (A) (A) (A) (A)
                 (A) (A) (A) (A) (A) (A) (A) (A) (A) (A) (A) (A)
                 (A) (A) (A) (A) (A) (A) (A) (A) (A) (A) (A) (A)
                 (A) (A) (A) (A) (A) (A) (A) (A) (A) (A) (A) (A)
                 (A) (A) (A) (A) (A) (A) (A) (A) (A) (A) (A) (A)
 The electronic state of the initial guess is 1-A.
 Requested convergence on RMS density matrix=1.00D-08 within 128 cycles.
 Requested convergence on MAX density matrix=1.00D-06.
 Requested convergence on             energy=1.00D-06.
 No special actions if energy rises.
 Error on total polarization charges =  0.05911
 SCF Done:  E(RB3LYP) =  -610.804145824     A.U. after   12 cycles
             Convg  =    0.4390D-08             -V/T =  2.0090
 SMD-CDS (non-electrostatic) energy       (kcal/mol) =       3.34
 (included in total energy above)

 **********************************************************************

            Population analysis using the SCF density.

 **********************************************************************

 Orbital symmetries:
       Occupied  (A) (A) (A) (A) (A) (A) (A) (A) (A) (A) (A) (A)
                 (A) (A) (A) (A) (A) (A) (A) (A) (A) (A) (A) (A)
                 (A) (A) (A) (A) (A) (A) (A) (A) (A) (A) (A) (A)
                 (A) (A) (A) (A) (A) (A) (A)
       Virtual   (A) (A) (A) (A) (A) (A) (A) (A) (A) (A) (A) (A)
                 (A) (A) (A) (A) (A) (A) (A) (A) (A) (A) (A) (A)
                 (A) (A) (A) (A) (A) (A) (A) (A) (A) (A) (A) (A)
                 (A) (A) (A) (A) (A) (A) (A) (A) (A) (A) (A) (A)
                 (A) (A) (A) (A) (A) (A) (A) (A) (A) (A) (A) (A)
                 (A) (A) (A) (A) (A) (A) (A) (A) (A) (A) (A) (A)
                 (A) (A) (A) (A) (A) (A) (A) (A) (A) (A) (A) (A)
                 (A) (A) (A) (A) (A) (A) (A) (A) (A) (A) (A) (A)
                 (A) (A) (A) (A) (A) (A) (A) (A) (A) (A) (A) (A)
                 (A) (A) (A) (A) (A) (A) (A) (A) (A) (A) (A) (A)
                 (A) (A) (A) (A) (A) (A) (A) (A) (A) (A) (A) (A)
                 (A) (A) (A) (A) (A) (A) (A) (A) (A) (A) (A) (A)
                 (A) (A) (A) (A) (A) (A) (A) (A) (A) (A) (A) (A)
                 (A) (A) (A) (A) (A) (A) (A) (A) (A) (A) (A) (A)
                 (A) (A) (A) (A) (A) (A) (A) (A) (A) (A) (A) (A)
                 (A) (A) (A) (A) (A) (A) (A) (A) (A) (A) (A) (A)
                 (A) (A) (A) (A) (A) (A) (A) (A) (A) (A) (A) (A)
                 (A) (A) (A) (A) (A) (A) (A) (A) (A) (A) (A) (A)
 The electronic state is 1-A.
 Alpha  occ. eigenvalues --  -19.18380 -19.17506 -19.17178 -19.17080 -19.17014
 Alpha  occ. eigenvalues --  -10.29558 -10.25197 -10.24652 -10.24432 -10.24373
 Alpha  occ. eigenvalues --  -10.23926  -1.11143  -1.05045  -1.03818  -1.02365
 Alpha  occ. eigenvalues --   -1.01110  -0.79293  -0.78492  -0.67365  -0.66180
 Alpha  occ. eigenvalues --   -0.62047  -0.57292  -0.55796  -0.54804  -0.51991
 Alpha  occ. eigenvalues --   -0.50159  -0.48922  -0.47660  -0.45423  -0.43891
 Alpha  occ. eigenvalues --   -0.42608  -0.41139  -0.39951  -0.39684  -0.36555
 Alpha  occ. eigenvalues --   -0.36203  -0.35375  -0.34578  -0.31711  -0.30448
 Alpha  occ. eigenvalues --   -0.29213  -0.28030  -0.26270
 Alpha virt. eigenvalues --    0.00599   0.01467   0.02337   0.02888   0.03862
 Alpha virt. eigenvalues --    0.04317   0.04542   0.05692   0.06436   0.07534
 Alpha virt. eigenvalues --    0.08692   0.09578   0.10045   0.10339   0.11627
 Alpha virt. eigenvalues --    0.12021   0.12627   0.13131   0.13952   0.14660
 Alpha virt. eigenvalues --    0.15018   0.15473   0.16023   0.16220   0.16552
 Alpha virt. eigenvalues --    0.17854   0.18522   0.19048   0.20046   0.21356
 Alpha virt. eigenvalues --    0.22030   0.22535   0.22723   0.23451   0.24441
 Alpha virt. eigenvalues --    0.24903   0.25060   0.25397   0.26442   0.26601
 Alpha virt. eigenvalues --    0.27657   0.27992   0.28263   0.28660   0.29726
 Alpha virt. eigenvalues --    0.30830   0.31057   0.32186   0.32736   0.33372
 Alpha virt. eigenvalues --    0.33898   0.34304   0.35335   0.35500   0.36412
 Alpha virt. eigenvalues --    0.36561   0.37552   0.38717   0.38838   0.39771
 Alpha virt. eigenvalues --    0.40372   0.42015   0.43033   0.43923   0.44515
 Alpha virt. eigenvalues --    0.46229   0.63148   0.66892   0.68606   0.69475
 Alpha virt. eigenvalues --    0.70211   0.73483   0.73998   0.75857   0.78063
 Alpha virt. eigenvalues --    0.78569   0.80470   0.81788   0.83396   0.84391
 Alpha virt. eigenvalues --    0.85773   0.89127   0.93120   0.94309   0.96329
 Alpha virt. eigenvalues --    0.98048   1.01664   1.03243   1.04624   1.04683
 Alpha virt. eigenvalues --    1.05550   1.07298   1.08398   1.10835   1.13596
 Alpha virt. eigenvalues --    1.20375   1.21645   1.23904   1.24705   1.25340
 Alpha virt. eigenvalues --    1.25695   1.27169   1.29894   1.31331   1.32046
 Alpha virt. eigenvalues --    1.35371   1.36050   1.36305   1.39773   1.40981
 Alpha virt. eigenvalues --    1.42798   1.44029   1.45664   1.46912   1.48046
 Alpha virt. eigenvalues --    1.52315   1.55287   1.56235   1.58310   1.58650
 Alpha virt. eigenvalues --    1.59943   1.62127   1.63546   1.66231   1.68569
 Alpha virt. eigenvalues --    1.71408   1.73540   1.75705   1.77053   1.78576
 Alpha virt. eigenvalues --    1.80989   1.81788   1.82929   1.84902   1.85453
 Alpha virt. eigenvalues --    1.87556   1.89392   1.94618   1.95124   1.97128
 Alpha virt. eigenvalues --    1.99373   1.99952   2.01867   2.03654   2.07113
 Alpha virt. eigenvalues --    2.08037   2.10742   2.11467   2.13333   2.15606
 Alpha virt. eigenvalues --    2.18548   2.20428   2.24130   2.30501   2.30989
 Alpha virt. eigenvalues --    2.33254   2.37503   2.39314   2.40910   2.43528
 Alpha virt. eigenvalues --    2.44162   2.45740   2.49003   2.49800   2.50392
 Alpha virt. eigenvalues --    2.53605   2.55521   2.58957   2.62106   2.64169
 Alpha virt. eigenvalues --    2.64564   2.66286   2.67299   2.69408   2.71220
 Alpha virt. eigenvalues --    2.72608   2.73439   2.77210   2.78419   2.79477
 Alpha virt. eigenvalues --    2.81658   2.84841   2.87263   2.88237   2.91008
 Alpha virt. eigenvalues --    2.92831   2.96262   2.98128   3.00624   3.01560
 Alpha virt. eigenvalues --    3.04648   3.06472   3.09706   3.20584   3.27391
 Alpha virt. eigenvalues --    3.33359   3.35243   3.40445   3.45058   3.47686
 Alpha virt. eigenvalues --    3.50829   3.51462   3.53461   3.55750   3.59102
 Alpha virt. eigenvalues --    4.27018   4.34670   4.38442   4.40362   4.49005
 Alpha virt. eigenvalues --    4.57487   4.65810   4.72429   4.76394   4.92338
 Alpha virt. eigenvalues --    5.01467
          Condensed to atoms (all electrons):
              1          2          3          4          5          6
     1  C    5.394362   0.017597  -0.299872   0.112744   0.063387  -0.187713
     2  C    0.017597   6.331089  -0.395371  -0.204879   0.241815  -0.212906
     3  C   -0.299872  -0.395371   6.064367  -0.247333  -0.298956   0.314588
     4  C    0.112744  -0.204879  -0.247333   6.007919  -0.085810  -0.023013
     5  C    0.063387   0.241815  -0.298956  -0.085810   6.557612  -0.847970
     6  C   -0.187713  -0.212906   0.314588  -0.023013  -0.847970   6.525816
     7  O   -0.031998   0.079432   0.265841  -0.028556  -0.112327  -0.083947
     8  O    0.166659  -0.162719   0.311868   0.007078  -0.139315   0.056752
     9  O    0.028869  -0.132084  -0.005258  -0.108426   0.007514   0.284572
    10  O   -0.001341   0.038339   0.041706   0.382561  -0.180426  -0.210310
    11  O    0.011711   0.001037  -0.152968  -0.092835   0.314555  -0.008958
    12  H    0.453899  -0.116823   0.019891   0.004074   0.003949  -0.000926
    13  H    0.412457  -0.024845  -0.022867   0.002165   0.005407   0.000667
    14  H    0.001066   0.314633   0.020724   0.006173  -0.001066  -0.006140
    15  H    0.008481   0.008202   0.367664   0.007198  -0.025720   0.010620
    16  H    0.012773  -0.026889  -0.014299   0.445545  -0.058026  -0.052862
    17  H    0.018074  -0.002185  -0.095241  -0.047038   0.437412  -0.006542
    18  H    0.026679  -0.127990   0.010472  -0.066868   0.005303   0.448697
    19  H   -0.005160   0.031076  -0.001569  -0.023093   0.019521  -0.026551
    20  H    0.000552  -0.000903  -0.003912   0.011778   0.010457  -0.012954
    21  H   -0.001810  -0.001752   0.034982  -0.016912  -0.037803   0.015733
              7          8          9         10         11         12
     1  C   -0.031998   0.166659   0.028869  -0.001341   0.011711   0.453899
     2  C    0.079432  -0.162719  -0.132084   0.038339   0.001037  -0.116823
     3  C    0.265841   0.311868  -0.005258   0.041706  -0.152968   0.019891
     4  C   -0.028556   0.007078  -0.108426   0.382561  -0.092835   0.004074
     5  C   -0.112327  -0.139315   0.007514  -0.180426   0.314555   0.003949
     6  C   -0.083947   0.056752   0.284572  -0.210310  -0.008958  -0.000926
     7  O    8.428968  -0.066980   0.015496  -0.002536   0.017811   0.009353
     8  O   -0.066980   8.416764  -0.001186  -0.003328   0.004200  -0.045994
     9  O    0.015496  -0.001186   8.337279   0.004206  -0.000753   0.000779
    10  O   -0.002536  -0.003328   0.004206   8.342964  -0.005785   0.000073
    11  O    0.017811   0.004200  -0.000753  -0.005785   8.324702  -0.000006
    12  H    0.009353  -0.045994   0.000779   0.000073  -0.000006   0.536334
    13  H   -0.001887  -0.049556  -0.000182  -0.000012   0.000023  -0.040379
    14  H   -0.029736   0.007770  -0.002053  -0.000486   0.000020   0.002033
    15  H   -0.044673  -0.044241   0.000013  -0.000787  -0.000070  -0.000262
    16  H    0.011088   0.000174   0.000935  -0.048792   0.001333  -0.000002
    17  H    0.010542  -0.004544   0.000315   0.000526  -0.043983  -0.000046
    18  H    0.009983  -0.000243  -0.045981   0.000207   0.000286   0.001529
    19  H   -0.001328   0.000093   0.244933   0.015049  -0.000053  -0.000006
    20  H    0.000383  -0.000002  -0.001103   0.259476  -0.000703   0.000000
    21  H   -0.001464  -0.000284  -0.000077   0.017021   0.245059   0.000000
             13         14         15         16         17         18
     1  C    0.412457   0.001066   0.008481   0.012773   0.018074   0.026679
     2  C   -0.024845   0.314633   0.008202  -0.026889  -0.002185  -0.127990
     3  C   -0.022867   0.020724   0.367664  -0.014299  -0.095241   0.010472
     4  C    0.002165   0.006173   0.007198   0.445545  -0.047038  -0.066868
     5  C    0.005407  -0.001066  -0.025720  -0.058026   0.437412   0.005303
     6  C    0.000667  -0.006140   0.010620  -0.052862  -0.006542   0.448697
     7  O   -0.001887  -0.029736  -0.044673   0.011088   0.010542   0.009983
     8  O   -0.049556   0.007770  -0.044241   0.000174  -0.004544  -0.000243
     9  O   -0.000182  -0.002053   0.000013   0.000935   0.000315  -0.045981
    10  O   -0.000012  -0.000486  -0.000787  -0.048792   0.000526   0.000207
    11  O    0.000023   0.000020  -0.000070   0.001333  -0.043983   0.000286
    12  H   -0.040379   0.002033  -0.000262  -0.000002  -0.000046   0.001529
    13  H    0.556170  -0.003348   0.000526   0.000002  -0.000041   0.000304
    14  H   -0.003348   0.504739  -0.000066   0.000103   0.000011   0.002271
    15  H    0.000526  -0.000066   0.538448  -0.000068   0.000397   0.000006
    16  H    0.000002   0.000103  -0.000068   0.546329   0.004420   0.004705
    17  H   -0.000041   0.000011   0.000397   0.004420   0.556913   0.002481
    18  H    0.000304   0.002271   0.000006   0.004705   0.002481   0.563229
    19  H    0.000004   0.000261   0.000000  -0.000425  -0.000022  -0.005198
    20  H    0.000000   0.000006   0.000006  -0.007826   0.000187   0.000147
    21  H    0.000000  -0.000001   0.000023  -0.000869  -0.004282  -0.000019
             19         20         21
     1  C   -0.005160   0.000552  -0.001810
     2  C    0.031076  -0.000903  -0.001752
     3  C   -0.001569  -0.003912   0.034982
     4  C   -0.023093   0.011778  -0.016912
     5  C    0.019521   0.010457  -0.037803
     6  C   -0.026551  -0.012954   0.015733
     7  O   -0.001328   0.000383  -0.001464
     8  O    0.000093  -0.000002  -0.000284
     9  O    0.244933  -0.001103  -0.000077
    10  O    0.015049   0.259476   0.017021
    11  O   -0.000053  -0.000703   0.245059
    12  H   -0.000006   0.000000   0.000000
    13  H    0.000004   0.000000   0.000000
    14  H    0.000261   0.000006  -0.000001
    15  H    0.000000   0.000006   0.000023
    16  H   -0.000425  -0.007826  -0.000869
    17  H   -0.000022   0.000187  -0.004282
    18  H   -0.005198   0.000147  -0.000019
    19  H    0.346608  -0.001139  -0.000003
    20  H   -0.001139   0.326380  -0.001333
    21  H   -0.000003  -0.001333   0.346347
 Mulliken atomic charges:
              1
     1  C   -0.201416
     2  C    0.346123
     3  C    0.085544
     4  C   -0.042470
     5  C    0.120488
     6  C    0.023349
     7  O   -0.443464
     8  O   -0.452965
     9  O   -0.627806
    10  O   -0.648325
    11  O   -0.614623
    12  H    0.172532
    13  H    0.165393
    14  H    0.183087
    15  H    0.174302
    16  H    0.182652
    17  H    0.172649
    18  H    0.170002
    19  H    0.407002
    20  H    0.420503
    21  H    0.407443
 Sum of Mulliken atomic charges =   0.00000
 Mulliken charges with hydrogens summed into heavy atoms:
              1
     1  C    0.136509
     2  C    0.529209
     3  C    0.259846
     4  C    0.140183
     5  C    0.293138
     6  C    0.193351
     7  O   -0.443464
     8  O   -0.452965
     9  O   -0.220804
    10  O   -0.227822
    11  O   -0.207180
 Sum of Mulliken charges with hydrogens summed into heavy atoms =   0.00000
 Electronic spatial extent (au):  <R**2>=           1517.2277
 Charge=              0.0000 electrons
 Dipole moment (field-independent basis, Debye):
    X=              2.7824    Y=              2.7210    Z=             -1.2982  Tot=              4.1025
 Quadrupole moment (field-independent basis, Debye-Ang):
   XX=            -52.5879   YY=            -71.3370   ZZ=            -71.0067
   XY=             -1.9192   XZ=              2.9484   YZ=             -2.3924
 Traceless Quadrupole moment (field-independent basis, Debye-Ang):
   XX=             12.3893   YY=             -6.3598   ZZ=             -6.0295
   XY=             -1.9192   XZ=              2.9484   YZ=             -2.3924
 Octapole moment (field-independent basis, Debye-Ang**2):
  XXX=             46.7075  YYY=              2.9989  ZZZ=             -5.2592  XYY=              8.4158
  XXY=             17.3627  XXZ=             14.1556  XZZ=              0.7546  YZZ=              3.8739
  YYZ=            -10.3401  XYZ=              6.0950
 Hexadecapole moment (field-independent basis, Debye-Ang**3):
 XXXX=           -718.8925 YYYY=           -855.3807 ZZZZ=           -236.2793 XXXY=            -14.6174
 XXXZ=             31.9494 YYYX=             32.8970 YYYZ=            -12.1996 ZZZX=              8.8198
 ZZZY=             -1.8026 XXYY=           -221.0189 XXZZ=           -204.5244 YYZZ=           -172.0987
 XXYZ=             -5.1167 YYXZ=            -24.4446 ZZXY=             -8.0670
 N-N= 7.167741701740D+02 E-N=-2.863561573868D+03  KE= 6.053366331766D+02

 Test job not archived.
 1\1\GINC-COMPUTE-10-4\SP\RB3LYP\6-31+G(d,p)\C6H10O5\ASAROTTI.IQUIR\15-
 Apr-2019\0\\# B3LYP/6-31+G** test scrf=(pcm,solvent=water,smd,dovacuum
 )\\comment\\0,1\C,0,-2.153675,0.505279,-0.646243\C,0,-1.136732,0.99158
 5,0.389046\C,0,-0.913581,-1.20877,0.271859\C,0,1.196862,0.11258,0.0735
 71\C,0,0.538939,-1.229394,-0.260203\C,0,0.25754,1.289279,-0.219591\O,0
 ,-1.068564,-0.180326,1.23453\O,0,-1.814929,-0.886556,-0.790697\O,0,0.7
 50557,2.495366,0.357607\O,0,2.421659,0.241291,-0.658627\O,0,1.234573,-
 2.30533,0.36026\H,0,-2.071472,1.00136,-1.617012\H,0,-3.179178,0.602612
 ,-0.271476\H,0,-1.477114,1.831377,0.995741\H,0,-1.186924,-2.16576,0.72
 3631\H,0,1.396895,0.114072,1.149944\H,0,0.508996,-1.368152,-1.350006\H
 ,0,0.173936,1.408255,-1.310173\H,0,1.622069,2.655127,-0.042673\H,0,3.1
 27761,0.46561,-0.034899\H,0,2.162539,-2.223413,0.081701\\Version=EM64L
 -G09RevC.01\State=1-A\HF=-610.8041458\RMSD=4.390e-09\Dipole=1.0946693,
 1.070516,-0.5107428\Quadrupole=9.2111053,-4.7283447,-4.4827606,-1.4268
 649,2.192084,-1.7786853\PG=C01 [X(C6H10O5)]\\@


 NOBODY LOSES ALL THE TIME
 I HAD AN UNCLE NAMED
 SOL WHO WAS A BORN FAILURE AND
 NEARLY EVERYBODY SAID HE SHOULD HAVE GONE
 INTO VAUDEVILLE PERHAPS BECAUSE MY UNCLE SOL COULD
 SING MCCANN HE WAS A DIVER ON XMAS EVE LIKE HELL ITSELF WHICH
 MAY OR MAY NOT ACCOUNT FOR THE FACT THAT MY UNCLE
 SOL INDULGED IN THAT POSSIBLY MOST INEXCUSABLE
 OF ALL TO USE A HIGHFALOOTIN PHRASE
 LUXURIES THAT IS OR TO
 WIT FARMING AND BE
 IT NEEDLESSLY
 ADDED
 MY UNCLE SOL'S FARM
 FAILED BECAUSE THE CHICKENS
 ATE THE VEGETABLES SO
 MY UNCLE SOL HAD A
 CHICKEN FARM TILL THE
 SKUNKS ATE THE CHICKENS WHEN 
 MY UNCLE SOL
 HAD A SKUNK FARM BUT
 THE SKUNKS CAUGHT COLD AND
 DIED AND SO
 MY UNCLE SOL IMITATED THE
 SKUNKS IN A SUBTLE MANNER
 OR BY DROWNING HIMSELF IN THE WATERTANK
 BUT SOMEBODY WHO'D GIVEN MY UNCLE SOL A VICTOR
 VICTROLA AND RECORDS WHILE HE LIVED PRESENTED TO
 HIM UPON THE AUSPICIOUS OCCASION OF HIS DECEASE A
 SCRUMPTIOUS NOT TO MENTION SPLENDIFEROUS FUNERAL WITH
 TALL BOYS IN BLACK GLOVES AND FLOWERS AND EVERYTHING AND
 I REMEMBER WE ALL CRIED LIKE THE MISSOURI
 WHEN MY UNCLE SOL'S COFFIN LURCHED BECAUSE
 SOMEBODY PRESSED A BUTTON
 (AND DOWN WENT
 MY UNCLE
 SOL
 AND STARTED A WORM FARM)
           E. E. CUMMINGS
 Job cpu time:  0 days  0 hours  4 minutes 52.7 seconds.
 File lengths (MBytes):  RWF=     56 Int=      0 D2E=      0 Chk=      4 Scr=      1
 Normal termination of Gaussian 09 at Mon Apr 15 17:46:24 2019.
