 Entering Gaussian System, Link 0=g09
 Input=/home/asarotti.iquir/SCF3/01_RSR_Levo25_OPTB_energy_b3lyp_smd.gjc
 Output=/home/asarotti.iquir/SCF3/01_RSR_Levo25_OPTB_energy_b3lyp_smd.log
 Initial command:
 /share/apps/Gaussian09/EM64T.SSE4.2-enabled/g09/l1.exe /tmp/Gau-23863.inp -scrdir=/tmp/
 Entering Link 1 = /share/apps/Gaussian09/EM64T.SSE4.2-enabled/g09/l1.exe PID=     23864.
  
 Copyright (c) 1988,1990,1992,1993,1995,1998,2003,2009,2011,
            Gaussian, Inc.  All Rights Reserved.
  
 This is part of the Gaussian(R) 09 program.  It is based on
 the Gaussian(R) 03 system (copyright 2003, Gaussian, Inc.),
 the Gaussian(R) 98 system (copyright 1998, Gaussian, Inc.),
 the Gaussian(R) 94 system (copyright 1995, Gaussian, Inc.),
 the Gaussian 92(TM) system (copyright 1992, Gaussian, Inc.),
 the Gaussian 90(TM) system (copyright 1990, Gaussian, Inc.),
 the Gaussian 88(TM) system (copyright 1988, Gaussian, Inc.),
 the Gaussian 86(TM) system (copyright 1986, Carnegie Mellon
 University), and the Gaussian 82(TM) system (copyright 1983,
 Carnegie Mellon University). Gaussian is a federally registered
 trademark of Gaussian, Inc.
  
 This software contains proprietary and confidential information,
 including trade secrets, belonging to Gaussian, Inc.
  
 This software is provided under written license and may be
 used, copied, transmitted, or stored only in accord with that
 written license.
  
 The following legend is applicable only to US Government
 contracts under FAR:
  
                    RESTRICTED RIGHTS LEGEND
  
 Use, reproduction and disclosure by the US Government is
 subject to restrictions as set forth in subparagraphs (a)
 and (c) of the Commercial Computer Software - Restricted
 Rights clause in FAR 52.227-19.
  
 Gaussian, Inc.
 340 Quinnipiac St., Bldg. 40, Wallingford CT 06492
  
  
 ---------------------------------------------------------------
 Warning -- This program may not be used in any manner that
 competes with the business of Gaussian, Inc. or will provide
 assistance to any competitor of Gaussian, Inc.  The licensee
 of this program is prohibited from giving any competitor of
 Gaussian, Inc. access to this program.  By using this program,
 the user acknowledges that Gaussian, Inc. is engaged in the
 business of creating and licensing software in the field of
 computational chemistry and represents and warrants to the
 licensee that it is not a competitor of Gaussian, Inc. and that
 it will not use this program in any manner prohibited above.
 ---------------------------------------------------------------
  

 Cite this work as:
 Gaussian 09, Revision C.01,
 M. J. Frisch, G. W. Trucks, H. B. Schlegel, G. E. Scuseria, 
 M. A. Robb, J. R. Cheeseman, G. Scalmani, V. Barone, B. Mennucci, 
 G. A. Petersson, H. Nakatsuji, M. Caricato, X. Li, H. P. Hratchian, 
 A. F. Izmaylov, J. Bloino, G. Zheng, J. L. Sonnenberg, M. Hada, 
 M. Ehara, K. Toyota, R. Fukuda, J. Hasegawa, M. Ishida, T. Nakajima, 
 Y. Honda, O. Kitao, H. Nakai, T. Vreven, J. A. Montgomery, Jr., 
 J. E. Peralta, F. Ogliaro, M. Bearpark, J. J. Heyd, E. Brothers, 
 K. N. Kudin, V. N. Staroverov, T. Keith, R. Kobayashi, J. Normand, 
 K. Raghavachari, A. Rendell, J. C. Burant, S. S. Iyengar, J. Tomasi, 
 M. Cossi, N. Rega, J. M. Millam, M. Klene, J. E. Knox, J. B. Cross, 
 V. Bakken, C. Adamo, J. Jaramillo, R. Gomperts, R. E. Stratmann, 
 O. Yazyev, A. J. Austin, R. Cammi, C. Pomelli, J. W. Ochterski, 
 R. L. Martin, K. Morokuma, V. G. Zakrzewski, G. A. Voth, 
 P. Salvador, J. J. Dannenberg, S. Dapprich, A. D. Daniels, 
 O. Farkas, J. B. Foresman, J. V. Ortiz, J. Cioslowski, 
 and D. J. Fox, Gaussian, Inc., Wallingford CT, 2010.
 
 ******************************************
 Gaussian 09:  EM64L-G09RevC.01 23-Sep-2011
                15-Apr-2019 
 ******************************************
 %nprocshared=4
 Will use up to    4 processors via shared memory.
 -----------------------------------------------------------
 # B3LYP/6-31+G** test scrf=(pcm,solvent=water,smd,dovacuum)
 -----------------------------------------------------------
 1/38=1/1;
 2/12=2,17=6,18=5,40=1/2;
 3/5=1,6=6,7=111,11=2,16=1,25=1,30=1,70=32101,72=1,74=-5/1,2,3;
 4//1;
 5/5=2,38=5,53=1/2;
 6/7=2,8=2,9=2,10=2,28=1/1;
 99/5=1,9=1/99;
 -------
 comment
 -------
 Charge =  0 Multiplicity = 1
 Symbolic Z-Matrix:
 6                     1.95978   0.69127  -0.09193 
 6                     0.63081   1.11794  -0.71338 
 6                     0.63131  -1.11047  -0.68239 
 6                    -0.72812  -0.02909   1.13514 
 6                    -0.60938  -1.26874   0.21941 
 6                    -0.51949   1.26924   0.30268 
 8                     0.37969  -0.03258  -1.56447 
 8                     1.77644  -0.73773   0.0968 
 8                    -1.72446   1.63344  -0.36761 
 8                     0.15634  -0.12189   2.24749 
 8                    -1.77752  -1.37861  -0.60478 
 1                     2.17259   1.15031   0.87548 
 1                     2.79624   0.8615   -0.77608 
 1                     0.69957   1.99541  -1.35745 
 1                     0.85046  -2.00428  -1.27272 
 1                    -1.74228   0.00872   1.54535 
 1                    -0.53038  -2.16977   0.83789 
 1                    -0.28067   2.08817   0.98956 
 1                    -2.11184   0.80919  -0.71025 
 1                     0.98734  -0.50076   1.90757 
 1                    -1.51435  -1.16043  -1.51607 
 
                          Input orientation:                          
 ---------------------------------------------------------------------
 Center     Atomic      Atomic             Coordinates (Angstroms)
 Number     Number       Type             X           Y           Z
 ---------------------------------------------------------------------
      1          6           0        1.959782    0.691266   -0.091926
      2          6           0        0.630805    1.117941   -0.713380
      3          6           0        0.631314   -1.110469   -0.682385
      4          6           0       -0.728124   -0.029086    1.135140
      5          6           0       -0.609378   -1.268740    0.219412
      6          6           0       -0.519491    1.269235    0.302683
      7          8           0        0.379687   -0.032576   -1.564471
      8          8           0        1.776442   -0.737734    0.096800
      9          8           0       -1.724460    1.633443   -0.367610
     10          8           0        0.156335   -0.121887    2.247493
     11          8           0       -1.777520   -1.378614   -0.604780
     12          1           0        2.172585    1.150305    0.875479
     13          1           0        2.796243    0.861502   -0.776082
     14          1           0        0.699572    1.995407   -1.357445
     15          1           0        0.850457   -2.004276   -1.272721
     16          1           0       -1.742280    0.008722    1.545348
     17          1           0       -0.530377   -2.169768    0.837886
     18          1           0       -0.280670    2.088166    0.989560
     19          1           0       -2.111840    0.809188   -0.710248
     20          1           0        0.987342   -0.500759    1.907567
     21          1           0       -1.514354   -1.160434   -1.516068
 ---------------------------------------------------------------------
                    Distance matrix (angstroms):
                    1          2          3          4          5
     1  C    0.000000
     2  C    1.527886   0.000000
     3  C    2.315106   2.228626   0.000000
     4  C    3.041289   2.565031   2.514132   0.000000
     5  C    3.246404   2.846823   1.541948   1.545769   0.000000
     6  C    2.576152   1.542224   2.820940   1.556326   2.540931
     7  O    2.277946   1.452964   1.415360   2.918074   2.385076
     8  O    1.453022   2.326458   1.434357   2.802353   2.447272
     9  O    3.812786   2.435687   3.630125   2.452539   3.163964
    10  O    3.063743   3.244852   3.128432   1.424152   2.452489
    11  O    4.302888   3.470535   2.424955   2.439217   1.433848
    12  H    1.091730   2.214183   3.148580   3.142053   3.744532
    13  H    1.093945   2.181471   2.929909   4.106955   4.138501
    14  H    2.211436   1.090640   3.179124   3.514238   3.854151
    15  H    3.144968   3.179520   1.093349   3.491574   2.213276
    16  H    4.105094   3.458866   3.442286   1.094629   2.161824
    17  H    3.905247   3.816255   2.186976   2.170250   1.095720
    18  H    2.853168   2.161511   3.722685   2.168909   3.459768
    19  H    4.119992   2.759971   3.348246   2.454146   2.727535
    20  H    2.522803   3.101076   2.684465   1.939573   2.447279
    21  H    4.186478   3.230636   2.302480   2.987810   1.960256
                    6          7          8          9         10
     6  C    0.000000
     7  O    2.447345   0.000000
     8  O    3.056407   2.282103   0.000000
     9  O    1.426145   2.938627   4.253760   0.000000
    10  O    2.484803   3.819546   2.762154   3.668424   0.000000
    11  O    3.068751   2.717787   3.678802   3.021846   3.668054
    12  H    2.754907   3.250699   2.080375   4.118938   2.750665
    13  H    3.510566   2.694564   2.087935   4.604291   4.132575
    14  H    2.183911   2.063468   3.277886   2.643241   4.215877
    15  H    3.882593   2.048010   2.082586   4.547793   4.051802
    16  H    2.151354   3.765026   3.877743   2.509869   2.028498
    17  H    3.480417   3.341725   2.814488   4.164549   2.579221
    18  H    1.095209   3.384774   3.607553   2.033030   2.580253
    19  H    1.942485   2.765135   4.261811   0.973068   3.841842
    20  H    2.824726   3.555768   1.989400   4.133415   0.974508
    21  H    3.193885   2.204948   3.689086   3.028011   4.246666
                   11         12         13         14         15
    11  O    0.000000
    12  H    4.918326   0.000000
    13  H    5.095760   1.788857   0.000000
    14  H    4.252823   2.805337   2.453518   0.000000
    15  H    2.782779   4.039080   3.499345   4.003425   0.000000
    16  H    2.559100   4.132566   5.168603   4.282028   4.326195
    17  H    2.064601   4.281390   4.781202   4.866306   2.527598
    18  H    4.098908   2.628889   3.753610   2.545174   4.810971
    19  H    2.215710   4.581178   4.908803   3.119298   4.123974
    20  H    3.837575   2.279478   3.511389   4.119947   3.520445
    21  H    0.973296   4.965132   4.818408   3.858233   2.522621
                   16         17         18         19         20
    16  H    0.000000
    17  H    2.591338   0.000000
    18  H    2.601786   4.267946   0.000000
    19  H    2.421783   3.711054   2.806834   0.000000
    20  H    2.800287   2.496654   3.025413   4.263079   0.000000
    21  H    3.284988   2.743732   4.284104   2.210372   4.291262
                   21
    21  H    0.000000
 Stoichiometry    C6H10O5
 Framework group  C1[X(C6H10O5)]
 Deg. of freedom    57
 Full point group                 C1      NOp   1
 Largest Abelian subgroup         C1      NOp   1
 Largest concise Abelian subgroup C1      NOp   1
                         Standard orientation:                         
 ---------------------------------------------------------------------
 Center     Atomic      Atomic             Coordinates (Angstroms)
 Number     Number       Type             X           Y           Z
 ---------------------------------------------------------------------
      1          6           0        1.959782    0.691266   -0.091926
      2          6           0        0.630805    1.117941   -0.713380
      3          6           0        0.631314   -1.110469   -0.682385
      4          6           0       -0.728124   -0.029086    1.135140
      5          6           0       -0.609378   -1.268740    0.219412
      6          6           0       -0.519491    1.269235    0.302683
      7          8           0        0.379687   -0.032576   -1.564471
      8          8           0        1.776442   -0.737734    0.096800
      9          8           0       -1.724460    1.633443   -0.367610
     10          8           0        0.156335   -0.121887    2.247493
     11          8           0       -1.777520   -1.378614   -0.604780
     12          1           0        2.172585    1.150305    0.875479
     13          1           0        2.796243    0.861502   -0.776082
     14          1           0        0.699572    1.995407   -1.357445
     15          1           0        0.850457   -2.004276   -1.272721
     16          1           0       -1.742280    0.008722    1.545348
     17          1           0       -0.530377   -2.169768    0.837886
     18          1           0       -0.280670    2.088166    0.989560
     19          1           0       -2.111840    0.809188   -0.710248
     20          1           0        0.987342   -0.500759    1.907567
     21          1           0       -1.514354   -1.160434   -1.516068
 ---------------------------------------------------------------------
 Rotational constants (GHZ):      1.4441392      1.2068249      1.1922289
 Standard basis: 6-31+G(d,p) (6D, 7F)
 There are   259 symmetry adapted basis functions of A   symmetry.
 Integral buffers will be    131072 words long.
 Raffenetti 2 integral format.
 Two-electron integral symmetry is turned on.
   259 basis functions,   422 primitive gaussians,   259 cartesian basis functions
    43 alpha electrons       43 beta electrons
       nuclear repulsion energy       740.3153451594 Hartrees.
 NAtoms=   21 NActive=   21 NUniq=   21 SFac= 1.00D+00 NAtFMM=   60 NAOKFM=F Big=F
 ------------------------------------------------------------------------------
 Polarizable Continuum Model (PCM)
 =================================
 Model                : C-PCM.
 Atomic radii         : SMD-Coulomb.
 Polarization charges : Total charges.
 Charge compensation  : None.
 Solution method      : Matrix inversion.
 Cavity type          : VdW (van der Waals Surface) (Alpha=1.000).
 Cavity algorithm     : GePol (No added spheres)
                        Default sphere list used, NSphG=   21.
                        Lebedev-Laikov grids with approx.  5.0 points / Ang**2.
                        Smoothing algorithm: Karplus/York (Gamma=1.0000).
                        Polarization charges: spherical gaussians, with
                                              point-specific exponents (IZeta= 3).
                        Self-potential: point-specific (ISelfS= 7).
                        Self-field    : sphere-specific E.n sum rule (ISelfD= 2).
 Solvent              : Water, Eps=  78.355300 Eps(inf)=   1.777849
 ------------------------------------------------------------------------------
 ------------------------------------------------------------------------------
 Atomic radii for non-electrostatic terms: SMD-CDS.
 ------------------------------------------------------------------------------
 Nuclear repulsion after PCM non-electrostatic terms =      740.3196161411 Hartrees.
 One-electron integrals computed using PRISM.
 NBasis=   259 RedAO= T  NBF=   259
 NBsUse=   259 1.00D-06 NBFU=   259
 Harris functional with IExCor=  402 diagonalized for initial guess.
 ExpMin= 4.38D-02 ExpMax= 5.48D+03 ExpMxC= 8.25D+02 IAcc=2 IRadAn=         4 AccDes= 0.00D+00
 HarFok:  IExCor=  402 AccDes= 0.00D+00 IRadAn=         4 IDoV= 1
 ScaDFX=  1.000000  1.000000  1.000000  1.000000
 FoFCou: FMM=F IPFlag=           0 FMFlag=      100000 FMFlg1=           0
         NFxFlg=           0 DoJE=T BraDBF=F KetDBF=T FulRan=T
         Omega=  0.000000  0.000000  1.000000  0.000000  0.000000 ICntrl=     500 IOpCl=  0
         NMat0=    1 NMatS0=    1 NMatT0=    0 NMatD0=    1 NMtDS0=    0 NMtDT0=    0
         I1Cent=           4 NGrid=           0.
 Petite list used in FoFCou.
 Initial guess orbital symmetries:
       Occupied  (A) (A) (A) (A) (A) (A) (A) (A) (A) (A) (A) (A)
                 (A) (A) (A) (A) (A) (A) (A) (A) (A) (A) (A) (A)
                 (A) (A) (A) (A) (A) (A) (A) (A) (A) (A) (A) (A)
                 (A) (A) (A) (A) (A) (A) (A)
       Virtual   (A) (A) (A) (A) (A) (A) (A) (A) (A) (A) (A) (A)
                 (A) (A) (A) (A) (A) (A) (A) (A) (A) (A) (A) (A)
                 (A) (A) (A) (A) (A) (A) (A) (A) (A) (A) (A) (A)
                 (A) (A) (A) (A) (A) (A) (A) (A) (A) (A) (A) (A)
                 (A) (A) (A) (A) (A) (A) (A) (A) (A) (A) (A) (A)
                 (A) (A) (A) (A) (A) (A) (A) (A) (A) (A) (A) (A)
                 (A) (A) (A) (A) (A) (A) (A) (A) (A) (A) (A) (A)
                 (A) (A) (A) (A) (A) (A) (A) (A) (A) (A) (A) (A)
                 (A) (A) (A) (A) (A) (A) (A) (A) (A) (A) (A) (A)
                 (A) (A) (A) (A) (A) (A) (A) (A) (A) (A) (A) (A)
                 (A) (A) (A) (A) (A) (A) (A) (A) (A) (A) (A) (A)
                 (A) (A) (A) (A) (A) (A) (A) (A) (A) (A) (A) (A)
                 (A) (A) (A) (A) (A) (A) (A) (A) (A) (A) (A) (A)
                 (A) (A) (A) (A) (A) (A) (A) (A) (A) (A) (A) (A)
                 (A) (A) (A) (A) (A) (A) (A) (A) (A) (A) (A) (A)
                 (A) (A) (A) (A) (A) (A) (A) (A) (A) (A) (A) (A)
                 (A) (A) (A) (A) (A) (A) (A) (A) (A) (A) (A) (A)
                 (A) (A) (A) (A) (A) (A) (A) (A) (A) (A) (A) (A)
 The electronic state of the initial guess is 1-A.
 Requested convergence on RMS density matrix=1.00D-08 within 128 cycles.
 Requested convergence on MAX density matrix=1.00D-06.
 Requested convergence on             energy=1.00D-06.
 No special actions if energy rises.
 Error on total polarization charges =  0.05784
 SCF Done:  E(RB3LYP) =  -610.802755334     A.U. after   12 cycles
             Convg  =    0.5615D-08             -V/T =  2.0090
 SMD-CDS (non-electrostatic) energy       (kcal/mol) =       2.68
 (included in total energy above)

 **********************************************************************

            Population analysis using the SCF density.

 **********************************************************************

 Orbital symmetries:
       Occupied  (A) (A) (A) (A) (A) (A) (A) (A) (A) (A) (A) (A)
                 (A) (A) (A) (A) (A) (A) (A) (A) (A) (A) (A) (A)
                 (A) (A) (A) (A) (A) (A) (A) (A) (A) (A) (A) (A)
                 (A) (A) (A) (A) (A) (A) (A)
       Virtual   (A) (A) (A) (A) (A) (A) (A) (A) (A) (A) (A) (A)
                 (A) (A) (A) (A) (A) (A) (A) (A) (A) (A) (A) (A)
                 (A) (A) (A) (A) (A) (A) (A) (A) (A) (A) (A) (A)
                 (A) (A) (A) (A) (A) (A) (A) (A) (A) (A) (A) (A)
                 (A) (A) (A) (A) (A) (A) (A) (A) (A) (A) (A) (A)
                 (A) (A) (A) (A) (A) (A) (A) (A) (A) (A) (A) (A)
                 (A) (A) (A) (A) (A) (A) (A) (A) (A) (A) (A) (A)
                 (A) (A) (A) (A) (A) (A) (A) (A) (A) (A) (A) (A)
                 (A) (A) (A) (A) (A) (A) (A) (A) (A) (A) (A) (A)
                 (A) (A) (A) (A) (A) (A) (A) (A) (A) (A) (A) (A)
                 (A) (A) (A) (A) (A) (A) (A) (A) (A) (A) (A) (A)
                 (A) (A) (A) (A) (A) (A) (A) (A) (A) (A) (A) (A)
                 (A) (A) (A) (A) (A) (A) (A) (A) (A) (A) (A) (A)
                 (A) (A) (A) (A) (A) (A) (A) (A) (A) (A) (A) (A)
                 (A) (A) (A) (A) (A) (A) (A) (A) (A) (A) (A) (A)
                 (A) (A) (A) (A) (A) (A) (A) (A) (A) (A) (A) (A)
                 (A) (A) (A) (A) (A) (A) (A) (A) (A) (A) (A) (A)
                 (A) (A) (A) (A) (A) (A) (A) (A) (A) (A) (A) (A)
 The electronic state is 1-A.
 Alpha  occ. eigenvalues --  -19.18861 -19.18654 -19.17676 -19.16848 -19.16747
 Alpha  occ. eigenvalues --  -10.30082 -10.25187 -10.25017 -10.24743 -10.24703
 Alpha  occ. eigenvalues --  -10.24471  -1.11802  -1.04797  -1.03763  -1.03408
 Alpha  occ. eigenvalues --   -1.01293  -0.79648  -0.77692  -0.68002  -0.66368
 Alpha  occ. eigenvalues --   -0.63447  -0.59181  -0.57018  -0.53244  -0.50980
 Alpha  occ. eigenvalues --   -0.50077  -0.48038  -0.47402  -0.45340  -0.44611
 Alpha  occ. eigenvalues --   -0.44161  -0.42299  -0.39991  -0.39083  -0.37980
 Alpha  occ. eigenvalues --   -0.36308  -0.36125  -0.35288  -0.32352  -0.31797
 Alpha  occ. eigenvalues --   -0.28672  -0.27176  -0.26921
 Alpha virt. eigenvalues --    0.00884   0.01296   0.02869   0.03014   0.04002
 Alpha virt. eigenvalues --    0.04362   0.05137   0.05475   0.05955   0.08168
 Alpha virt. eigenvalues --    0.08917   0.09805   0.10105   0.10551   0.11512
 Alpha virt. eigenvalues --    0.12263   0.12441   0.13392   0.13621   0.13859
 Alpha virt. eigenvalues --    0.14680   0.15883   0.16708   0.17064   0.17171
 Alpha virt. eigenvalues --    0.18152   0.18701   0.19513   0.19821   0.20099
 Alpha virt. eigenvalues --    0.20785   0.21557   0.22300   0.22783   0.23571
 Alpha virt. eigenvalues --    0.24011   0.24844   0.25600   0.26196   0.27197
 Alpha virt. eigenvalues --    0.27333   0.28084   0.28914   0.29539   0.29994
 Alpha virt. eigenvalues --    0.30331   0.30873   0.31953   0.32469   0.32867
 Alpha virt. eigenvalues --    0.33520   0.34339   0.34586   0.35756   0.35924
 Alpha virt. eigenvalues --    0.36493   0.37203   0.38263   0.38809   0.40006
 Alpha virt. eigenvalues --    0.42483   0.43320   0.44989   0.46996   0.49221
 Alpha virt. eigenvalues --    0.52156   0.63749   0.64963   0.66698   0.67959
 Alpha virt. eigenvalues --    0.68874   0.69946   0.71466   0.74345   0.76030
 Alpha virt. eigenvalues --    0.78613   0.79893   0.81620   0.83909   0.85538
 Alpha virt. eigenvalues --    0.87335   0.91354   0.94462   0.97338   0.99425
 Alpha virt. eigenvalues --    1.01478   1.03723   1.04577   1.05969   1.07663
 Alpha virt. eigenvalues --    1.08087   1.08975   1.10349   1.11382   1.13081
 Alpha virt. eigenvalues --    1.16922   1.19868   1.23012   1.23666   1.26499
 Alpha virt. eigenvalues --    1.26777   1.27305   1.28210   1.29812   1.31104
 Alpha virt. eigenvalues --    1.34241   1.36384   1.37705   1.38643   1.40412
 Alpha virt. eigenvalues --    1.43353   1.44107   1.46209   1.47585   1.48448
 Alpha virt. eigenvalues --    1.52904   1.53749   1.56930   1.58984   1.59917
 Alpha virt. eigenvalues --    1.60499   1.64402   1.65965   1.67719   1.68423
 Alpha virt. eigenvalues --    1.71662   1.72228   1.73946   1.75663   1.77401
 Alpha virt. eigenvalues --    1.80097   1.83362   1.84220   1.86478   1.86948
 Alpha virt. eigenvalues --    1.89836   1.90810   1.92774   1.95782   1.97441
 Alpha virt. eigenvalues --    1.99050   2.02819   2.04776   2.05793   2.07165
 Alpha virt. eigenvalues --    2.09125   2.10704   2.12127   2.15240   2.17279
 Alpha virt. eigenvalues --    2.18088   2.19906   2.22998   2.27041   2.29794
 Alpha virt. eigenvalues --    2.30987   2.33600   2.35279   2.39876   2.43303
 Alpha virt. eigenvalues --    2.45099   2.45910   2.51119   2.52265   2.52660
 Alpha virt. eigenvalues --    2.55809   2.57117   2.59440   2.62261   2.64100
 Alpha virt. eigenvalues --    2.64879   2.65724   2.66889   2.68996   2.71303
 Alpha virt. eigenvalues --    2.71654   2.73566   2.74221   2.76317   2.80024
 Alpha virt. eigenvalues --    2.83575   2.86115   2.87025   2.88432   2.89280
 Alpha virt. eigenvalues --    2.92443   2.95345   2.97305   2.98964   3.00592
 Alpha virt. eigenvalues --    3.03358   3.04686   3.07582   3.17972   3.22563
 Alpha virt. eigenvalues --    3.34187   3.40293   3.45141   3.47565   3.48390
 Alpha virt. eigenvalues --    3.49080   3.51701   3.55109   3.60474   3.61238
 Alpha virt. eigenvalues --    4.28829   4.31591   4.41097   4.47884   4.49730
 Alpha virt. eigenvalues --    4.56264   4.61440   4.79038   4.85344   4.93662
 Alpha virt. eigenvalues --    5.03619
          Condensed to atoms (all electrons):
              1          2          3          4          5          6
     1  C    5.612693  -0.283187  -0.277257  -0.368057   0.250429   0.233601
     2  C   -0.283187   7.125027  -0.634339   0.885660  -0.101699  -1.252151
     3  C   -0.277257  -0.634339   6.310987   0.120263  -0.737488   0.476940
     4  C   -0.368057   0.885660   0.120263   6.928221  -0.603342  -1.042243
     5  C    0.250429  -0.101699  -0.737488  -0.603342   6.781155  -0.048215
     6  C    0.233601  -1.252151   0.476940  -1.042243  -0.048215   7.088157
     7  O    0.023911  -0.020629   0.213433  -0.211864   0.016076   0.066256
     8  O    0.066349  -0.036013   0.259114   0.080906  -0.245866  -0.026347
     9  O    0.014769  -0.107074  -0.015037  -0.006330  -0.013486   0.190582
    10  O    0.015913  -0.028825  -0.023578   0.175616  -0.018051  -0.063643
    11  O    0.001080  -0.067299  -0.077029  -0.155685   0.234570   0.120441
    12  H    0.466543  -0.136559   0.020465  -0.029289   0.005566   0.041074
    13  H    0.393523  -0.000435  -0.027437   0.003030   0.007801  -0.008089
    14  H    0.004096   0.328200   0.017512   0.002936  -0.011592  -0.006422
    15  H   -0.004567   0.051448   0.350058   0.036539  -0.038793  -0.033781
    16  H    0.005918  -0.004824   0.017908   0.387462  -0.045859  -0.024100
    17  H    0.010501  -0.035547  -0.027929  -0.134451   0.430053   0.059971
    18  H    0.020746  -0.043484  -0.038317  -0.091172   0.067809   0.397587
    19  H   -0.001399  -0.021664  -0.015812  -0.045452   0.040067   0.024755
    20  H   -0.004586  -0.002266   0.025221   0.001925  -0.036503  -0.005704
    21  H    0.000153   0.009316  -0.013995  -0.008040  -0.006685  -0.002566
              7          8          9         10         11         12
     1  C    0.023911   0.066349   0.014769   0.015913   0.001080   0.466543
     2  C   -0.020629  -0.036013  -0.107074  -0.028825  -0.067299  -0.136559
     3  C    0.213433   0.259114  -0.015037  -0.023578  -0.077029   0.020465
     4  C   -0.211864   0.080906  -0.006330   0.175616  -0.155685  -0.029289
     5  C    0.016076  -0.245866  -0.013486  -0.018051   0.234570   0.005566
     6  C    0.066256  -0.026347   0.190582  -0.063643   0.120441   0.041074
     7  O    8.456749  -0.063265   0.016974   0.008146  -0.004471   0.009601
     8  O   -0.063265   8.541450   0.002593  -0.002996   0.012421  -0.050895
     9  O    0.016974   0.002593   8.316138   0.006280  -0.019585   0.000278
    10  O    0.008146  -0.002996   0.006280   8.286328   0.010599   0.001988
    11  O   -0.004471   0.012421  -0.019585   0.010599   8.276395   0.000019
    12  H    0.009601  -0.050895   0.000278   0.001988   0.000019   0.518178
    13  H   -0.002755  -0.039248  -0.000212  -0.000288   0.000099  -0.035312
    14  H   -0.036609   0.008466   0.002650   0.000116   0.000508   0.001742
    15  H   -0.045516  -0.036844   0.000393  -0.000822   0.004063  -0.000221
    16  H   -0.002989   0.001156   0.002515  -0.052009  -0.001574  -0.000037
    17  H    0.012334   0.000311  -0.000895   0.009528  -0.048491   0.000014
    18  H    0.010414  -0.002218  -0.048821   0.001599  -0.000875   0.001079
    19  H    0.006839  -0.000878   0.250631   0.000787   0.029023   0.000001
    20  H   -0.001646   0.027454   0.000153   0.255953   0.001004  -0.001220
    21  H    0.022383   0.001958  -0.001918  -0.000104   0.262390  -0.000002
             13         14         15         16         17         18
     1  C    0.393523   0.004096  -0.004567   0.005918   0.010501   0.020746
     2  C   -0.000435   0.328200   0.051448  -0.004824  -0.035547  -0.043484
     3  C   -0.027437   0.017512   0.350058   0.017908  -0.027929  -0.038317
     4  C    0.003030   0.002936   0.036539   0.387462  -0.134451  -0.091172
     5  C    0.007801  -0.011592  -0.038793  -0.045859   0.430053   0.067809
     6  C   -0.008089  -0.006422  -0.033781  -0.024100   0.059971   0.397587
     7  O   -0.002755  -0.036609  -0.045516  -0.002989   0.012334   0.010414
     8  O   -0.039248   0.008466  -0.036844   0.001156   0.000311  -0.002218
     9  O   -0.000212   0.002650   0.000393   0.002515  -0.000895  -0.048821
    10  O   -0.000288   0.000116  -0.000822  -0.052009   0.009528   0.001599
    11  O    0.000099   0.000508   0.004063  -0.001574  -0.048491  -0.000875
    12  H   -0.035312   0.001742  -0.000221  -0.000037   0.000014   0.001079
    13  H    0.536560  -0.003252   0.000565   0.000003  -0.000003   0.000016
    14  H   -0.003252   0.516490  -0.000021  -0.000136   0.000020  -0.001906
    15  H    0.000565  -0.000021   0.538525  -0.000139  -0.003415   0.000026
    16  H    0.000003  -0.000136  -0.000139   0.542702  -0.003487  -0.003116
    17  H   -0.000003   0.000020  -0.003415  -0.003487   0.548525  -0.000157
    18  H    0.000016  -0.001906   0.000026  -0.003116  -0.000157   0.552043
    19  H    0.000000  -0.000589  -0.000003  -0.001667  -0.000006   0.005227
    20  H    0.000269  -0.000063  -0.000147   0.005396  -0.001333  -0.000041
    21  H    0.000002   0.000016  -0.000350   0.000120   0.004232  -0.000010
             19         20         21
     1  C   -0.001399  -0.004586   0.000153
     2  C   -0.021664  -0.002266   0.009316
     3  C   -0.015812   0.025221  -0.013995
     4  C   -0.045452   0.001925  -0.008040
     5  C    0.040067  -0.036503  -0.006685
     6  C    0.024755  -0.005704  -0.002566
     7  O    0.006839  -0.001646   0.022383
     8  O   -0.000878   0.027454   0.001958
     9  O    0.250631   0.000153  -0.001918
    10  O    0.000787   0.255953  -0.000104
    11  O    0.029023   0.001004   0.262390
    12  H    0.000001  -0.001220  -0.000002
    13  H    0.000000   0.000269   0.000002
    14  H   -0.000589  -0.000063   0.000016
    15  H   -0.000003  -0.000147  -0.000350
    16  H   -0.001667   0.005396   0.000120
    17  H   -0.000006  -0.001333   0.004232
    18  H    0.005227  -0.000041  -0.000010
    19  H    0.326604  -0.000022  -0.003134
    20  H   -0.000022   0.317197  -0.000022
    21  H   -0.003134  -0.000022   0.326543
 Mulliken atomic charges:
              1
     1  C   -0.181174
     2  C    0.376340
     3  C    0.076314
     4  C    0.073367
     5  C    0.074051
     6  C   -0.186104
     7  O   -0.473371
     8  O   -0.497609
     9  O   -0.590598
    10  O   -0.582537
    11  O   -0.577605
    12  H    0.186986
    13  H    0.175165
    14  H    0.177835
    15  H    0.183003
    16  H    0.176757
    17  H    0.180225
    18  H    0.173571
    19  H    0.406691
    20  H    0.418981
    21  H    0.409713
 Sum of Mulliken atomic charges =   0.00000
 Mulliken charges with hydrogens summed into heavy atoms:
              1
     1  C    0.180976
     2  C    0.554175
     3  C    0.259317
     4  C    0.250124
     5  C    0.254276
     6  C   -0.012533
     7  O   -0.473371
     8  O   -0.497609
     9  O   -0.183907
    10  O   -0.163555
    11  O   -0.167892
 Sum of Mulliken charges with hydrogens summed into heavy atoms =   0.00000
 Electronic spatial extent (au):  <R**2>=           1326.6359
 Charge=              0.0000 electrons
 Dipole moment (field-independent basis, Debye):
    X=              3.2043    Y=             -0.3206    Z=             -1.9942  Tot=              3.7878
 Quadrupole moment (field-independent basis, Debye-Ang):
   XX=            -68.4706   YY=            -65.0517   ZZ=            -71.6476
   XY=              5.9092   XZ=              0.7498   YZ=              1.9181
 Traceless Quadrupole moment (field-independent basis, Debye-Ang):
   XX=             -0.0806   YY=              3.3383   ZZ=             -3.2576
   XY=              5.9092   XZ=              0.7498   YZ=              1.9181
 Octapole moment (field-independent basis, Debye-Ang**2):
  XXX=             13.1435  YYY=             -9.8850  ZZZ=            -25.8908  XYY=             21.9239
  XXY=              7.9934  XXZ=             -0.6702  XZZ=             -4.4210  YZZ=             -5.4261
  YYZ=             -0.9067  XYZ=             -2.1104
 Hexadecapole moment (field-independent basis, Debye-Ang**3):
 XXXX=           -676.6467 YYYY=           -513.8219 ZZZZ=           -553.2145 XXXY=             19.1891
 XXXZ=              8.3806 YYYX=             13.6927 YYYZ=              7.0046 ZZZX=             23.3660
 ZZZY=              8.4122 XXYY=           -237.2508 XXZZ=           -163.2904 YYZZ=           -150.3870
 XXYZ=             -0.7229 YYXZ=            -11.7382 ZZXY=              2.8373
 N-N= 7.403196161411D+02 E-N=-2.909742365783D+03  KE= 6.053467938799D+02

 Test job not archived.
 1\1\GINC-COMPUTE-10-2\SP\RB3LYP\6-31+G(d,p)\C6H10O5\ROOT\15-Apr-2019\0
 \\# B3LYP/6-31+G** test scrf=(pcm,solvent=water,smd,dovacuum)\\comment
 \\0,1\C,0,1.959782,0.691266,-0.091926\C,0,0.630805,1.117941,-0.71338\C
 ,0,0.631314,-1.110469,-0.682385\C,0,-0.728124,-0.029086,1.13514\C,0,-0
 .609378,-1.26874,0.219412\C,0,-0.519491,1.269235,0.302683\O,0,0.379687
 ,-0.032576,-1.564471\O,0,1.776442,-0.737734,0.0968\O,0,-1.72446,1.6334
 43,-0.36761\O,0,0.156335,-0.121887,2.247493\O,0,-1.77752,-1.378614,-0.
 60478\H,0,2.172585,1.150305,0.875479\H,0,2.796243,0.861502,-0.776082\H
 ,0,0.699572,1.995407,-1.357445\H,0,0.850457,-2.004276,-1.272721\H,0,-1
 .74228,0.008722,1.545348\H,0,-0.530377,-2.169768,0.837886\H,0,-0.28067
 ,2.088166,0.98956\H,0,-2.11184,0.809188,-0.710248\H,0,0.987342,-0.5007
 59,1.907567\H,0,-1.514354,-1.160434,-1.516068\\Version=EM64L-G09RevC.0
 1\State=1-A\HF=-610.8027553\RMSD=5.615e-09\Dipole=1.2606625,-0.1261528
 ,-0.7845908\Quadrupole=-0.0599534,2.4819194,-2.421966,4.3933163,0.5574
 293,1.4260583\PG=C01 [X(C6H10O5)]\\@


 A MUSTACHE HAIR ACROSS A CHIP IS LIKE A REDWOOD
 TREE FALLING THROUGH A HOUSING PROJECT.
 - AN IBM MANAGER IN EAST FISHKILL, NEW YORK
   AS QUOTED IN "FROM SANDS TO CIRCUITS", IBM INNOVATION JANUARY 1985.
 Job cpu time:  0 days  0 hours  5 minutes 27.7 seconds.
 File lengths (MBytes):  RWF=     55 Int=      0 D2E=      0 Chk=      4 Scr=      1
 Normal termination of Gaussian 09 at Mon Apr 15 17:56:38 2019.
