 Entering Gaussian System, Link 0=g09
 Input=/home/asarotti.iquir/SCF3/01_RSR_Levo03_OPTB_energy_b3lyp_smd.gjc
 Output=/home/asarotti.iquir/SCF3/01_RSR_Levo03_OPTB_energy_b3lyp_smd.log
 Initial command:
 /share/apps/Gaussian09/EM64T.SSE4.2-enabled/g09/l1.exe /tmp/Gau-5181.inp -scrdir=/tmp/
 Entering Link 1 = /share/apps/Gaussian09/EM64T.SSE4.2-enabled/g09/l1.exe PID=      5183.
  
 Copyright (c) 1988,1990,1992,1993,1995,1998,2003,2009,2011,
            Gaussian, Inc.  All Rights Reserved.
  
 This is part of the Gaussian(R) 09 program.  It is based on
 the Gaussian(R) 03 system (copyright 2003, Gaussian, Inc.),
 the Gaussian(R) 98 system (copyright 1998, Gaussian, Inc.),
 the Gaussian(R) 94 system (copyright 1995, Gaussian, Inc.),
 the Gaussian 92(TM) system (copyright 1992, Gaussian, Inc.),
 the Gaussian 90(TM) system (copyright 1990, Gaussian, Inc.),
 the Gaussian 88(TM) system (copyright 1988, Gaussian, Inc.),
 the Gaussian 86(TM) system (copyright 1986, Carnegie Mellon
 University), and the Gaussian 82(TM) system (copyright 1983,
 Carnegie Mellon University). Gaussian is a federally registered
 trademark of Gaussian, Inc.
  
 This software contains proprietary and confidential information,
 including trade secrets, belonging to Gaussian, Inc.
  
 This software is provided under written license and may be
 used, copied, transmitted, or stored only in accord with that
 written license.
  
 The following legend is applicable only to US Government
 contracts under FAR:
  
                    RESTRICTED RIGHTS LEGEND
  
 Use, reproduction and disclosure by the US Government is
 subject to restrictions as set forth in subparagraphs (a)
 and (c) of the Commercial Computer Software - Restricted
 Rights clause in FAR 52.227-19.
  
 Gaussian, Inc.
 340 Quinnipiac St., Bldg. 40, Wallingford CT 06492
  
  
 ---------------------------------------------------------------
 Warning -- This program may not be used in any manner that
 competes with the business of Gaussian, Inc. or will provide
 assistance to any competitor of Gaussian, Inc.  The licensee
 of this program is prohibited from giving any competitor of
 Gaussian, Inc. access to this program.  By using this program,
 the user acknowledges that Gaussian, Inc. is engaged in the
 business of creating and licensing software in the field of
 computational chemistry and represents and warrants to the
 licensee that it is not a competitor of Gaussian, Inc. and that
 it will not use this program in any manner prohibited above.
 ---------------------------------------------------------------
  

 Cite this work as:
 Gaussian 09, Revision C.01,
 M. J. Frisch, G. W. Trucks, H. B. Schlegel, G. E. Scuseria, 
 M. A. Robb, J. R. Cheeseman, G. Scalmani, V. Barone, B. Mennucci, 
 G. A. Petersson, H. Nakatsuji, M. Caricato, X. Li, H. P. Hratchian, 
 A. F. Izmaylov, J. Bloino, G. Zheng, J. L. Sonnenberg, M. Hada, 
 M. Ehara, K. Toyota, R. Fukuda, J. Hasegawa, M. Ishida, T. Nakajima, 
 Y. Honda, O. Kitao, H. Nakai, T. Vreven, J. A. Montgomery, Jr., 
 J. E. Peralta, F. Ogliaro, M. Bearpark, J. J. Heyd, E. Brothers, 
 K. N. Kudin, V. N. Staroverov, T. Keith, R. Kobayashi, J. Normand, 
 K. Raghavachari, A. Rendell, J. C. Burant, S. S. Iyengar, J. Tomasi, 
 M. Cossi, N. Rega, J. M. Millam, M. Klene, J. E. Knox, J. B. Cross, 
 V. Bakken, C. Adamo, J. Jaramillo, R. Gomperts, R. E. Stratmann, 
 O. Yazyev, A. J. Austin, R. Cammi, C. Pomelli, J. W. Ochterski, 
 R. L. Martin, K. Morokuma, V. G. Zakrzewski, G. A. Voth, 
 P. Salvador, J. J. Dannenberg, S. Dapprich, A. D. Daniels, 
 O. Farkas, J. B. Foresman, J. V. Ortiz, J. Cioslowski, 
 and D. J. Fox, Gaussian, Inc., Wallingford CT, 2010.
 
 ******************************************
 Gaussian 09:  EM64L-G09RevC.01 23-Sep-2011
                15-Apr-2019 
 ******************************************
 %nprocshared=4
 Will use up to    4 processors via shared memory.
 -----------------------------------------------------------
 # B3LYP/6-31+G** test scrf=(pcm,solvent=water,smd,dovacuum)
 -----------------------------------------------------------
 1/38=1/1;
 2/12=2,17=6,18=5,40=1/2;
 3/5=1,6=6,7=111,11=2,16=1,25=1,30=1,70=32101,72=1,74=-5/1,2,3;
 4//1;
 5/5=2,38=5,53=1/2;
 6/7=2,8=2,9=2,10=2,28=1/1;
 99/5=1,9=1/99;
 -------
 comment
 -------
 Charge =  0 Multiplicity = 1
 Symbolic Z-Matrix:
 6                    -2.15541   0.46524  -0.65681 
 6                    -1.15902   0.96782   0.38958 
 6                    -0.88748  -1.22755   0.26438 
 6                     1.19584   0.14497   0.05606 
 6                     0.57729  -1.22254  -0.24762 
 6                     0.23001   1.3019   -0.20696 
 8                    -1.07193  -0.20545   1.22967 
 8                    -1.77446  -0.91354  -0.81402 
 8                     0.70939   2.49754   0.40249 
 8                     2.37877   0.40094  -0.69467 
 8                     1.39871  -2.17714   0.42405 
 1                    -2.08203   0.97318  -1.62204 
 1                    -3.18522   0.52978  -0.28655 
 1                    -1.52271   1.79747   0.99681 
 1                    -1.16033  -2.18778   0.71189 
 1                     1.41906   0.1538    1.13139 
 1                     0.57081  -1.40413  -1.32949 
 1                     0.14578   1.44828  -1.29455 
 1                     1.62766   2.60271   0.09901 
 1                     3.03453  -0.26038  -0.41863 
 1                     1.22136  -3.05075   0.04021 
 
                          Input orientation:                          
 ---------------------------------------------------------------------
 Center     Atomic      Atomic             Coordinates (Angstroms)
 Number     Number       Type             X           Y           Z
 ---------------------------------------------------------------------
      1          6           0       -2.155409    0.465243   -0.656809
      2          6           0       -1.159025    0.967818    0.389584
      3          6           0       -0.887480   -1.227547    0.264377
      4          6           0        1.195840    0.144971    0.056057
      5          6           0        0.577286   -1.222535   -0.247615
      6          6           0        0.230011    1.301904   -0.206957
      7          8           0       -1.071934   -0.205451    1.229671
      8          8           0       -1.774463   -0.913539   -0.814024
      9          8           0        0.709387    2.497535    0.402493
     10          8           0        2.378767    0.400939   -0.694672
     11          8           0        1.398712   -2.177145    0.424049
     12          1           0       -2.082028    0.973182   -1.622042
     13          1           0       -3.185220    0.529775   -0.286551
     14          1           0       -1.522711    1.797468    0.996808
     15          1           0       -1.160334   -2.187781    0.711894
     16          1           0        1.419060    0.153798    1.131394
     17          1           0        0.570811   -1.404132   -1.329494
     18          1           0        0.145775    1.448275   -1.294553
     19          1           0        1.627664    2.602705    0.099013
     20          1           0        3.034532   -0.260379   -0.418629
     21          1           0        1.221362   -3.050753    0.040206
 ---------------------------------------------------------------------
                    Distance matrix (angstroms):
                    1          2          3          4          5
     1  C    0.000000
     2  C    1.529804   0.000000
     3  C    2.306895   2.215636   0.000000
     4  C    3.441166   2.516686   2.503483   0.000000
     5  C    3.237847   2.866783   1.551677   1.531306   0.000000
     6  C    2.567605   1.548191   2.805185   1.529868   2.548538
     7  O    2.276523   1.445646   1.417920   2.577395   2.436547
     8  O    1.439054   2.316666   1.431184   3.271114   2.438651
     9  O    3.668704   2.414780   4.055280   2.427182   3.778758
    10  O    4.534790   3.743386   3.773607   1.424230   2.465940
    11  O    4.558755   4.053887   2.480707   2.359830   1.427289
    12  H    1.093189   2.213279   3.135080   3.774436   3.712435
    13  H    1.096251   2.180483   2.944709   4.411252   4.150730
    14  H    2.215757   1.090554   3.176585   3.317571   3.883168
    15  H    3.146754   3.172017   1.093970   3.379854   2.207188
    16  H    4.008927   2.803468   2.824882   1.098296   2.122391
    17  H    3.373328   3.402015   2.167538   2.170284   1.097033
    18  H    2.582347   2.183955   3.264644   2.150671   2.900949
    19  H    4.410403   3.243905   4.585207   2.495751   3.981948
    20  H    5.245831   4.443827   4.096839   1.941758   2.644437
    21  H    4.924494   4.683719   2.796703   3.195865   1.959606
                    6          7          8          9         10
     6  C    0.000000
     7  O    2.455826   0.000000
     8  O    3.048710   2.274121   0.000000
     9  O    1.425049   3.341177   4.391452   0.000000
    10  O    2.380495   3.997267   4.357914   2.895914   0.000000
    11  O    3.723951   3.262008   3.632983   4.725280   2.976334
    12  H    2.730577   3.246803   2.075381   3.770198   4.591968
    13  H    3.502331   2.702862   2.086053   4.417559   5.580422
    14  H    2.183270   2.066182   3.269870   2.413621   4.475816
    15  H    3.867202   2.050741   2.080690   5.054085   4.604903
    16  H    2.126774   2.518684   3.888759   2.555002   2.077651
    17  H    2.949384   3.268757   2.450857   4.271064   2.632487
    18  H    1.100629   3.254125   3.081621   2.073299   2.538311
    19  H    1.933684   4.056101   4.977155   0.972828   2.458021
    20  H    3.217277   4.425265   4.869229   3.699545   0.971375
    21  H    4.470961   3.843147   3.777878   5.583625   3.714002
                   11         12         13         14         15
    11  O    0.000000
    12  H    5.121191   0.000000
    13  H    5.370736   1.788066   0.000000
    14  H    4.965915   2.801903   2.453160   0.000000
    15  H    2.575206   4.035897   3.533011   4.011820   0.000000
    16  H    2.435990   4.528843   4.832320   3.372504   3.508881
    17  H    2.087554   3.574180   4.351493   4.477137   2.788948
    18  H    4.203227   2.301319   3.599339   2.855892   4.353465
    19  H    4.796356   4.402180   5.254479   3.373323   5.576496
    20  H    2.657067   5.398987   6.271133   5.196793   4.752879
    21  H    0.970556   5.465117   5.687259   5.652457   2.620756
                   16         17         18         19         20
    16  H    0.000000
    17  H    3.033586   0.000000
    18  H    3.030205   2.884112   0.000000
    19  H    2.665797   4.383185   2.338959   0.000000
    20  H    2.276810   2.864920   3.468668   3.231792   0.000000
    21  H    3.391006   2.238449   4.814532   5.668344   3.359212
                   21
    21  H    0.000000
 Stoichiometry    C6H10O5
 Framework group  C1[X(C6H10O5)]
 Deg. of freedom    57
 Full point group                 C1      NOp   1
 Largest Abelian subgroup         C1      NOp   1
 Largest concise Abelian subgroup C1      NOp   1
                         Standard orientation:                         
 ---------------------------------------------------------------------
 Center     Atomic      Atomic             Coordinates (Angstroms)
 Number     Number       Type             X           Y           Z
 ---------------------------------------------------------------------
      1          6           0       -2.155410    0.465241   -0.656809
      2          6           0       -1.159026    0.967817    0.389584
      3          6           0       -0.887479   -1.227548    0.264377
      4          6           0        1.195840    0.144972    0.056057
      5          6           0        0.577287   -1.222534   -0.247615
      6          6           0        0.230010    1.301904   -0.206957
      7          8           0       -1.071934   -0.205452    1.229671
      8          8           0       -1.774462   -0.913541   -0.814024
      9          8           0        0.709384    2.497536    0.402493
     10          8           0        2.378767    0.400942   -0.694672
     11          8           0        1.398714   -2.177143    0.424049
     12          1           0       -2.082029    0.973180   -1.622042
     13          1           0       -3.185221    0.529772   -0.286551
     14          1           0       -1.522713    1.797466    0.996808
     15          1           0       -1.160332   -2.187782    0.711894
     16          1           0        1.419060    0.153800    1.131394
     17          1           0        0.570813   -1.404131   -1.329494
     18          1           0        0.145773    1.448275   -1.294553
     19          1           0        1.627661    2.602707    0.099013
     20          1           0        3.034532   -0.260376   -0.418629
     21          1           0        1.221365   -3.050752    0.040206
 ---------------------------------------------------------------------
 Rotational constants (GHZ):      1.4111314      1.2554377      0.8045067
 Standard basis: 6-31+G(d,p) (6D, 7F)
 There are   259 symmetry adapted basis functions of A   symmetry.
 Integral buffers will be    131072 words long.
 Raffenetti 2 integral format.
 Two-electron integral symmetry is turned on.
   259 basis functions,   422 primitive gaussians,   259 cartesian basis functions
    43 alpha electrons       43 beta electrons
       nuclear repulsion energy       717.2508755952 Hartrees.
 NAtoms=   21 NActive=   21 NUniq=   21 SFac= 1.00D+00 NAtFMM=   60 NAOKFM=F Big=F
 ------------------------------------------------------------------------------
 Polarizable Continuum Model (PCM)
 =================================
 Model                : C-PCM.
 Atomic radii         : SMD-Coulomb.
 Polarization charges : Total charges.
 Charge compensation  : None.
 Solution method      : Matrix inversion.
 Cavity type          : VdW (van der Waals Surface) (Alpha=1.000).
 Cavity algorithm     : GePol (No added spheres)
                        Default sphere list used, NSphG=   21.
                        Lebedev-Laikov grids with approx.  5.0 points / Ang**2.
                        Smoothing algorithm: Karplus/York (Gamma=1.0000).
                        Polarization charges: spherical gaussians, with
                                              point-specific exponents (IZeta= 3).
                        Self-potential: point-specific (ISelfS= 7).
                        Self-field    : sphere-specific E.n sum rule (ISelfD= 2).
 Solvent              : Water, Eps=  78.355300 Eps(inf)=   1.777849
 ------------------------------------------------------------------------------
 ------------------------------------------------------------------------------
 Atomic radii for non-electrostatic terms: SMD-CDS.
 ------------------------------------------------------------------------------
 Nuclear repulsion after PCM non-electrostatic terms =      717.2562127061 Hartrees.
 One-electron integrals computed using PRISM.
 NBasis=   259 RedAO= T  NBF=   259
 NBsUse=   259 1.00D-06 NBFU=   259
 Harris functional with IExCor=  402 diagonalized for initial guess.
 ExpMin= 4.38D-02 ExpMax= 5.48D+03 ExpMxC= 8.25D+02 IAcc=2 IRadAn=         4 AccDes= 0.00D+00
 HarFok:  IExCor=  402 AccDes= 0.00D+00 IRadAn=         4 IDoV= 1
 ScaDFX=  1.000000  1.000000  1.000000  1.000000
 FoFCou: FMM=F IPFlag=           0 FMFlag=      100000 FMFlg1=           0
         NFxFlg=           0 DoJE=T BraDBF=F KetDBF=T FulRan=T
         Omega=  0.000000  0.000000  1.000000  0.000000  0.000000 ICntrl=     500 IOpCl=  0
         NMat0=    1 NMatS0=    1 NMatT0=    0 NMatD0=    1 NMtDS0=    0 NMtDT0=    0
         I1Cent=           4 NGrid=           0.
 Petite list used in FoFCou.
 Initial guess orbital symmetries:
       Occupied  (A) (A) (A) (A) (A) (A) (A) (A) (A) (A) (A) (A)
                 (A) (A) (A) (A) (A) (A) (A) (A) (A) (A) (A) (A)
                 (A) (A) (A) (A) (A) (A) (A) (A) (A) (A) (A) (A)
                 (A) (A) (A) (A) (A) (A) (A)
       Virtual   (A) (A) (A) (A) (A) (A) (A) (A) (A) (A) (A) (A)
                 (A) (A) (A) (A) (A) (A) (A) (A) (A) (A) (A) (A)
                 (A) (A) (A) (A) (A) (A) (A) (A) (A) (A) (A) (A)
                 (A) (A) (A) (A) (A) (A) (A) (A) (A) (A) (A) (A)
                 (A) (A) (A) (A) (A) (A) (A) (A) (A) (A) (A) (A)
                 (A) (A) (A) (A) (A) (A) (A) (A) (A) (A) (A) (A)
                 (A) (A) (A) (A) (A) (A) (A) (A) (A) (A) (A) (A)
                 (A) (A) (A) (A) (A) (A) (A) (A) (A) (A) (A) (A)
                 (A) (A) (A) (A) (A) (A) (A) (A) (A) (A) (A) (A)
                 (A) (A) (A) (A) (A) (A) (A) (A) (A) (A) (A) (A)
                 (A) (A) (A) (A) (A) (A) (A) (A) (A) (A) (A) (A)
                 (A) (A) (A) (A) (A) (A) (A) (A) (A) (A) (A) (A)
                 (A) (A) (A) (A) (A) (A) (A) (A) (A) (A) (A) (A)
                 (A) (A) (A) (A) (A) (A) (A) (A) (A) (A) (A) (A)
                 (A) (A) (A) (A) (A) (A) (A) (A) (A) (A) (A) (A)
                 (A) (A) (A) (A) (A) (A) (A) (A) (A) (A) (A) (A)
                 (A) (A) (A) (A) (A) (A) (A) (A) (A) (A) (A) (A)
                 (A) (A) (A) (A) (A) (A) (A) (A) (A) (A) (A) (A)
 The electronic state of the initial guess is 1-A.
 Requested convergence on RMS density matrix=1.00D-08 within 128 cycles.
 Requested convergence on MAX density matrix=1.00D-06.
 Requested convergence on             energy=1.00D-06.
 No special actions if energy rises.
 Error on total polarization charges =  0.05889
 SCF Done:  E(RB3LYP) =  -610.804869910     A.U. after   12 cycles
             Convg  =    0.4280D-08             -V/T =  2.0090
 SMD-CDS (non-electrostatic) energy       (kcal/mol) =       3.35
 (included in total energy above)

 **********************************************************************

            Population analysis using the SCF density.

 **********************************************************************

 Orbital symmetries:
       Occupied  (A) (A) (A) (A) (A) (A) (A) (A) (A) (A) (A) (A)
                 (A) (A) (A) (A) (A) (A) (A) (A) (A) (A) (A) (A)
                 (A) (A) (A) (A) (A) (A) (A) (A) (A) (A) (A) (A)
                 (A) (A) (A) (A) (A) (A) (A)
       Virtual   (A) (A) (A) (A) (A) (A) (A) (A) (A) (A) (A) (A)
                 (A) (A) (A) (A) (A) (A) (A) (A) (A) (A) (A) (A)
                 (A) (A) (A) (A) (A) (A) (A) (A) (A) (A) (A) (A)
                 (A) (A) (A) (A) (A) (A) (A) (A) (A) (A) (A) (A)
                 (A) (A) (A) (A) (A) (A) (A) (A) (A) (A) (A) (A)
                 (A) (A) (A) (A) (A) (A) (A) (A) (A) (A) (A) (A)
                 (A) (A) (A) (A) (A) (A) (A) (A) (A) (A) (A) (A)
                 (A) (A) (A) (A) (A) (A) (A) (A) (A) (A) (A) (A)
                 (A) (A) (A) (A) (A) (A) (A) (A) (A) (A) (A) (A)
                 (A) (A) (A) (A) (A) (A) (A) (A) (A) (A) (A) (A)
                 (A) (A) (A) (A) (A) (A) (A) (A) (A) (A) (A) (A)
                 (A) (A) (A) (A) (A) (A) (A) (A) (A) (A) (A) (A)
                 (A) (A) (A) (A) (A) (A) (A) (A) (A) (A) (A) (A)
                 (A) (A) (A) (A) (A) (A) (A) (A) (A) (A) (A) (A)
                 (A) (A) (A) (A) (A) (A) (A) (A) (A) (A) (A) (A)
                 (A) (A) (A) (A) (A) (A) (A) (A) (A) (A) (A) (A)
                 (A) (A) (A) (A) (A) (A) (A) (A) (A) (A) (A) (A)
                 (A) (A) (A) (A) (A) (A) (A) (A) (A) (A) (A) (A)
 The electronic state is 1-A.
 Alpha  occ. eigenvalues --  -19.18365 -19.17524 -19.17218 -19.17114 -19.16982
 Alpha  occ. eigenvalues --  -10.29377 -10.25201 -10.24806 -10.24516 -10.24454
 Alpha  occ. eigenvalues --  -10.23918  -1.11091  -1.05208  -1.03805  -1.02456
 Alpha  occ. eigenvalues --   -1.01102  -0.79294  -0.78419  -0.67537  -0.66019
 Alpha  occ. eigenvalues --   -0.62422  -0.57508  -0.55866  -0.54326  -0.52292
 Alpha  occ. eigenvalues --   -0.50031  -0.48071  -0.47895  -0.45429  -0.44191
 Alpha  occ. eigenvalues --   -0.42986  -0.41548  -0.40099  -0.38608  -0.36650
 Alpha  occ. eigenvalues --   -0.36220  -0.35527  -0.34933  -0.31808  -0.29910
 Alpha  occ. eigenvalues --   -0.29137  -0.28677  -0.26109
 Alpha virt. eigenvalues --    0.01017   0.01446   0.02015   0.03005   0.03829
 Alpha virt. eigenvalues --    0.04288   0.04592   0.05599   0.06285   0.07814
 Alpha virt. eigenvalues --    0.08541   0.09492   0.09857   0.10482   0.11682
 Alpha virt. eigenvalues --    0.12066   0.12709   0.13236   0.13971   0.14553
 Alpha virt. eigenvalues --    0.15087   0.15630   0.15797   0.16220   0.16608
 Alpha virt. eigenvalues --    0.18068   0.18403   0.19181   0.20572   0.21014
 Alpha virt. eigenvalues --    0.21656   0.22202   0.22496   0.23678   0.24428
 Alpha virt. eigenvalues --    0.24999   0.25174   0.25419   0.26302   0.26987
 Alpha virt. eigenvalues --    0.27491   0.27786   0.28223   0.29310   0.30275
 Alpha virt. eigenvalues --    0.31292   0.31619   0.32138   0.32236   0.33109
 Alpha virt. eigenvalues --    0.33915   0.34474   0.35319   0.35485   0.36155
 Alpha virt. eigenvalues --    0.36952   0.37507   0.38018   0.38987   0.39881
 Alpha virt. eigenvalues --    0.41103   0.41761   0.42260   0.43344   0.44519
 Alpha virt. eigenvalues --    0.44909   0.64153   0.67236   0.68345   0.69933
 Alpha virt. eigenvalues --    0.70553   0.73481   0.74438   0.75556   0.78093
 Alpha virt. eigenvalues --    0.78897   0.80306   0.81395   0.83161   0.84756
 Alpha virt. eigenvalues --    0.85502   0.88668   0.92971   0.94312   0.96265
 Alpha virt. eigenvalues --    0.98837   1.01632   1.03787   1.03923   1.04670
 Alpha virt. eigenvalues --    1.05941   1.07776   1.08549   1.11455   1.13272
 Alpha virt. eigenvalues --    1.17547   1.21330   1.23536   1.24535   1.26320
 Alpha virt. eigenvalues --    1.26703   1.28161   1.30250   1.30687   1.32130
 Alpha virt. eigenvalues --    1.34544   1.34965   1.37557   1.38619   1.40052
 Alpha virt. eigenvalues --    1.42965   1.43657   1.45593   1.47036   1.51036
 Alpha virt. eigenvalues --    1.52374   1.54155   1.56541   1.57162   1.59533
 Alpha virt. eigenvalues --    1.60013   1.60966   1.63557   1.67320   1.68336
 Alpha virt. eigenvalues --    1.70799   1.73894   1.74982   1.76400   1.77191
 Alpha virt. eigenvalues --    1.80504   1.82416   1.83081   1.84853   1.85835
 Alpha virt. eigenvalues --    1.87899   1.92967   1.93218   1.96479   1.97540
 Alpha virt. eigenvalues --    1.99786   2.00354   2.02641   2.05367   2.07476
 Alpha virt. eigenvalues --    2.08193   2.09187   2.12849   2.13806   2.17595
 Alpha virt. eigenvalues --    2.18995   2.20000   2.24390   2.27389   2.29132
 Alpha virt. eigenvalues --    2.32410   2.34414   2.37538   2.39321   2.41628
 Alpha virt. eigenvalues --    2.45099   2.46756   2.49205   2.51910   2.52460
 Alpha virt. eigenvalues --    2.55423   2.56951   2.60320   2.60926   2.63084
 Alpha virt. eigenvalues --    2.65001   2.65709   2.67110   2.68239   2.70655
 Alpha virt. eigenvalues --    2.71110   2.73381   2.75624   2.76929   2.80988
 Alpha virt. eigenvalues --    2.82241   2.85522   2.85790   2.88027   2.91865
 Alpha virt. eigenvalues --    2.93340   2.95678   2.96592   3.00786   3.03824
 Alpha virt. eigenvalues --    3.05813   3.06547   3.10241   3.20863   3.27414
 Alpha virt. eigenvalues --    3.33472   3.36226   3.40810   3.44905   3.48021
 Alpha virt. eigenvalues --    3.50493   3.52104   3.52862   3.54726   3.57303
 Alpha virt. eigenvalues --    4.28059   4.33716   4.38700   4.41631   4.48369
 Alpha virt. eigenvalues --    4.56982   4.65523   4.71158   4.76050   4.91208
 Alpha virt. eigenvalues --    5.00940
          Condensed to atoms (all electrons):
              1          2          3          4          5          6
     1  C    5.367953   0.018013  -0.236894   0.096123   0.016927  -0.139410
     2  C    0.018013   6.310455  -0.410677  -0.246478   0.185861  -0.084063
     3  C   -0.236894  -0.410677   6.076635  -0.185075  -0.263124   0.156875
     4  C    0.096123  -0.246478  -0.185075   5.939252  -0.204498   0.208735
     5  C    0.016927   0.185861  -0.263124  -0.204498   6.222977  -0.391939
     6  C   -0.139410  -0.084063   0.156875   0.208735  -0.391939   5.818792
     7  O   -0.038333   0.093125   0.257872  -0.029638  -0.086547  -0.107469
     8  O    0.165180  -0.169758   0.286402   0.003173  -0.125927   0.069366
     9  O    0.025771  -0.137712   0.002834  -0.089202   0.005634   0.274399
    10  O    0.001531   0.039752   0.019071   0.240060  -0.075220  -0.147725
    11  O    0.005402   0.004862  -0.121753  -0.121933   0.283846   0.004185
    12  H    0.452404  -0.113104   0.017998   0.003116   0.007275  -0.003254
    13  H    0.411078  -0.028469  -0.020425   0.000994   0.003622   0.004931
    14  H   -0.000361   0.322936   0.018002   0.007933  -0.001152  -0.010387
    15  H    0.006041   0.006298   0.384943   0.011986  -0.048739   0.017573
    16  H    0.012542  -0.021216  -0.001430   0.440325  -0.032975  -0.099456
    17  H    0.015013   0.006044  -0.078185  -0.067259   0.457846  -0.022769
    18  H    0.027508  -0.137082   0.012414  -0.035855   0.016527   0.410207
    19  H   -0.005338   0.026063  -0.001655  -0.043421   0.018154   0.003645
    20  H    0.000367  -0.006583   0.007055   0.023885  -0.058468   0.031424
    21  H   -0.000037  -0.000207  -0.036185   0.018385   0.026591  -0.000968
              7          8          9         10         11         12
     1  C   -0.038333   0.165180   0.025771   0.001531   0.005402   0.452404
     2  C    0.093125  -0.169758  -0.137712   0.039752   0.004862  -0.113104
     3  C    0.257872   0.286402   0.002834   0.019071  -0.121753   0.017998
     4  C   -0.029638   0.003173  -0.089202   0.240060  -0.121933   0.003116
     5  C   -0.086547  -0.125927   0.005634  -0.075220   0.283846   0.007275
     6  C   -0.107469   0.069366   0.274399  -0.147725   0.004185  -0.003254
     7  O    8.432555  -0.066001   0.016760  -0.001318   0.012603   0.009449
     8  O   -0.066001   8.426870  -0.001433  -0.003958   0.002839  -0.046130
     9  O    0.016760  -0.001433   8.345520  -0.014022  -0.000102   0.000759
    10  O   -0.001318  -0.003958  -0.014022   8.372396  -0.006474   0.000088
    11  O    0.012603   0.002839  -0.000102  -0.006474   8.364202  -0.000003
    12  H    0.009449  -0.046130   0.000759   0.000088  -0.000003   0.535799
    13  H   -0.002008  -0.048593  -0.000170  -0.000016   0.000019  -0.040119
    14  H   -0.031140   0.007899  -0.002311  -0.000400   0.000047   0.001966
    15  H   -0.048453  -0.044334  -0.000034  -0.000614  -0.001692  -0.000265
    16  H    0.011144  -0.000236   0.002536  -0.050402  -0.001059   0.000001
    17  H    0.011078  -0.002716   0.000206   0.001308  -0.046740  -0.000048
    18  H    0.010484  -0.000345  -0.046634   0.000913  -0.000222   0.001678
    19  H   -0.001550   0.000105   0.240460   0.014458  -0.000078  -0.000006
    20  H    0.000332  -0.000009   0.001054   0.245013   0.011053   0.000000
    21  H   -0.000616   0.000340   0.000016  -0.000444   0.243477   0.000000
             13         14         15         16         17         18
     1  C    0.411078  -0.000361   0.006041   0.012542   0.015013   0.027508
     2  C   -0.028469   0.322936   0.006298  -0.021216   0.006044  -0.137082
     3  C   -0.020425   0.018002   0.384943  -0.001430  -0.078185   0.012414
     4  C    0.000994   0.007933   0.011986   0.440325  -0.067259  -0.035855
     5  C    0.003622  -0.001152  -0.048739  -0.032975   0.457846   0.016527
     6  C    0.004931  -0.010387   0.017573  -0.099456  -0.022769   0.410207
     7  O   -0.002008  -0.031140  -0.048453   0.011144   0.011078   0.010484
     8  O   -0.048593   0.007899  -0.044334  -0.000236  -0.002716  -0.000345
     9  O   -0.000170  -0.002311  -0.000034   0.002536   0.000206  -0.046634
    10  O   -0.000016  -0.000400  -0.000614  -0.050402   0.001308   0.000913
    11  O    0.000019   0.000047  -0.001692  -0.001059  -0.046740  -0.000222
    12  H   -0.040119   0.001966  -0.000265   0.000001  -0.000048   0.001678
    13  H    0.556468  -0.003230   0.000564   0.000002  -0.000032   0.000283
    14  H   -0.003230   0.504354  -0.000053   0.000082   0.000014   0.002152
    15  H    0.000564  -0.000053   0.542726  -0.000248   0.000490   0.000001
    16  H    0.000002   0.000082  -0.000248   0.562594   0.004369   0.004846
    17  H   -0.000032   0.000014   0.000490   0.004369   0.545994   0.002186
    18  H    0.000283   0.002152   0.000001   0.004846   0.002186   0.565971
    19  H    0.000004   0.000262   0.000000  -0.001100  -0.000020  -0.004604
    20  H    0.000000   0.000004  -0.000003  -0.005648  -0.000408   0.000089
    21  H    0.000000   0.000000   0.001744   0.000210  -0.006259   0.000009
             19         20         21
     1  C   -0.005338   0.000367  -0.000037
     2  C    0.026063  -0.006583  -0.000207
     3  C   -0.001655   0.007055  -0.036185
     4  C   -0.043421   0.023885   0.018385
     5  C    0.018154  -0.058468   0.026591
     6  C    0.003645   0.031424  -0.000968
     7  O   -0.001550   0.000332  -0.000616
     8  O    0.000105  -0.000009   0.000340
     9  O    0.240460   0.001054   0.000016
    10  O    0.014458   0.245013  -0.000444
    11  O   -0.000078   0.011053   0.243477
    12  H   -0.000006   0.000000   0.000000
    13  H    0.000004   0.000000   0.000000
    14  H    0.000262   0.000004   0.000000
    15  H    0.000000  -0.000003   0.001744
    16  H   -0.001100  -0.005648   0.000210
    17  H   -0.000020  -0.000408  -0.006259
    18  H   -0.004604   0.000089   0.000009
    19  H    0.351831  -0.000693   0.000000
    20  H   -0.000693   0.339173  -0.000535
    21  H    0.000000  -0.000535   0.338218
 Mulliken atomic charges:
              1
     1  C   -0.201479
     2  C    0.341939
     3  C    0.115303
     4  C    0.029394
     5  C    0.043328
     6  C    0.007307
     7  O   -0.442329
     8  O   -0.452731
     9  O   -0.624328
    10  O   -0.633998
    11  O   -0.632478
    12  H    0.172399
    13  H    0.165098
    14  H    0.183383
    15  H    0.172069
    16  H    0.175118
    17  H    0.179888
    18  H    0.169476
    19  H    0.403483
    20  H    0.412899
    21  H    0.416260
 Sum of Mulliken atomic charges =   0.00000
 Mulliken charges with hydrogens summed into heavy atoms:
              1
     1  C    0.136017
     2  C    0.525322
     3  C    0.287372
     4  C    0.204513
     5  C    0.223216
     6  C    0.176782
     7  O   -0.442329
     8  O   -0.452731
     9  O   -0.220845
    10  O   -0.221099
    11  O   -0.216218
 Sum of Mulliken charges with hydrogens summed into heavy atoms =   0.00000
 Electronic spatial extent (au):  <R**2>=           1512.3230
 Charge=              0.0000 electrons
 Dipole moment (field-independent basis, Debye):
    X=              0.2363    Y=             -1.7444    Z=             -2.2303  Tot=              2.8413
 Quadrupole moment (field-independent basis, Debye-Ang):
   XX=            -61.5508   YY=            -60.3016   ZZ=            -71.4419
   XY=             -5.4691   XZ=              0.1275   YZ=             -0.7287
 Traceless Quadrupole moment (field-independent basis, Debye-Ang):
   XX=              2.8806   YY=              4.1298   ZZ=             -7.0104
   XY=             -5.4691   XZ=              0.1275   YZ=             -0.7287
 Octapole moment (field-independent basis, Debye-Ang**2):
  XXX=             17.3128  YYY=            -51.8199  ZZZ=             -5.6680  XYY=              8.5197
  XXY=             13.1827  XXZ=              4.4314  XZZ=              0.7594  YZZ=              3.2193
  YYZ=            -10.6455  XYZ=             10.4194
 Hexadecapole moment (field-independent basis, Debye-Ang**3):
 XXXX=           -786.7212 YYYY=           -678.2874 ZZZZ=           -243.7444 XXXY=            -28.8404
 XXXZ=              1.6759 YYYX=             -3.8036 YYYZ=             -6.5259 ZZZX=              7.1893
 ZZZY=             -0.6951 XXYY=           -251.9645 XXZZ=           -201.9647 YYZZ=           -173.4760
 XXYZ=              6.1488 YYXZ=            -24.6055 ZZXY=             -9.5545
 N-N= 7.172562127061D+02 E-N=-2.864657895964D+03  KE= 6.053439099665D+02

 Test job not archived.
 1\1\GINC-COMPUTE-10-0\SP\RB3LYP\6-31+G(d,p)\C6H10O5\ASAROTTI.IQUIR\15-
 Apr-2019\0\\# B3LYP/6-31+G** test scrf=(pcm,solvent=water,smd,dovacuum
 )\\comment\\0,1\C,0,-2.155409,0.465243,-0.656809\C,0,-1.159025,0.96781
 8,0.389584\C,0,-0.88748,-1.227547,0.264377\C,0,1.19584,0.144971,0.0560
 57\C,0,0.577286,-1.222535,-0.247615\C,0,0.230011,1.301904,-0.206957\O,
 0,-1.071934,-0.205451,1.229671\O,0,-1.774463,-0.913539,-0.814024\O,0,0
 .709387,2.497535,0.402493\O,0,2.378767,0.400939,-0.694672\O,0,1.398712
 ,-2.177145,0.424049\H,0,-2.082028,0.973182,-1.622042\H,0,-3.18522,0.52
 9775,-0.286551\H,0,-1.522711,1.797468,0.996808\H,0,-1.160334,-2.187781
 ,0.711894\H,0,1.41906,0.153798,1.131394\H,0,0.570811,-1.404132,-1.3294
 94\H,0,0.145775,1.448275,-1.294553\H,0,1.627664,2.602705,0.099013\H,0,
 3.034532,-0.260379,-0.418629\H,0,1.221362,-3.050753,0.040206\\Version=
 EM64L-G09RevC.01\State=1-A\HF=-610.8048699\RMSD=4.280e-09\Dipole=0.092
 9661,-0.6862963,-0.8774678\Quadrupole=2.1416563,3.0704375,-5.2120938,-
 4.0661531,0.0948245,-0.5417951\PG=C01 [X(C6H10O5)]\\@


 ON INDUCTION, OR "WHY DO YOU BELIEVE THE SUN WILL RISE TOMORROW?":

 ... THE FARMER WHO HAS FED THE CHICKEN EVERY DAY THROUGHOUT ITS
 LIFE AT LAST WRINGS ITS NECK INSTEAD, SHOWING THAT MORE REFINED VIEWS
 AS TO THE UNIFORMITY OF NATURE WOULD HAVE BEEN USEFUL TO THE CHICKEN.

                               -- BERTRAND RUSSELL
 Job cpu time:  0 days  0 hours 13 minutes  4.9 seconds.
 File lengths (MBytes):  RWF=     56 Int=      0 D2E=      0 Chk=      4 Scr=      1
 Normal termination of Gaussian 09 at Mon Apr 15 17:45:35 2019.
