 Entering Gaussian System, Link 0=g09
 Input=/home/asarotti.iquir/SCF3/01_RSR_Levo12_OPTB_energy_b3lyp_smd.gjc
 Output=/home/asarotti.iquir/SCF3/01_RSR_Levo12_OPTB_energy_b3lyp_smd.log
 Initial command:
 /share/apps/Gaussian09/EM64T.SSE4.2-enabled/g09/l1.exe /tmp/Gau-10424.inp -scrdir=/tmp/
 Entering Link 1 = /share/apps/Gaussian09/EM64T.SSE4.2-enabled/g09/l1.exe PID=     10425.
  
 Copyright (c) 1988,1990,1992,1993,1995,1998,2003,2009,2011,
            Gaussian, Inc.  All Rights Reserved.
  
 This is part of the Gaussian(R) 09 program.  It is based on
 the Gaussian(R) 03 system (copyright 2003, Gaussian, Inc.),
 the Gaussian(R) 98 system (copyright 1998, Gaussian, Inc.),
 the Gaussian(R) 94 system (copyright 1995, Gaussian, Inc.),
 the Gaussian 92(TM) system (copyright 1992, Gaussian, Inc.),
 the Gaussian 90(TM) system (copyright 1990, Gaussian, Inc.),
 the Gaussian 88(TM) system (copyright 1988, Gaussian, Inc.),
 the Gaussian 86(TM) system (copyright 1986, Carnegie Mellon
 University), and the Gaussian 82(TM) system (copyright 1983,
 Carnegie Mellon University). Gaussian is a federally registered
 trademark of Gaussian, Inc.
  
 This software contains proprietary and confidential information,
 including trade secrets, belonging to Gaussian, Inc.
  
 This software is provided under written license and may be
 used, copied, transmitted, or stored only in accord with that
 written license.
  
 The following legend is applicable only to US Government
 contracts under FAR:
  
                    RESTRICTED RIGHTS LEGEND
  
 Use, reproduction and disclosure by the US Government is
 subject to restrictions as set forth in subparagraphs (a)
 and (c) of the Commercial Computer Software - Restricted
 Rights clause in FAR 52.227-19.
  
 Gaussian, Inc.
 340 Quinnipiac St., Bldg. 40, Wallingford CT 06492
  
  
 ---------------------------------------------------------------
 Warning -- This program may not be used in any manner that
 competes with the business of Gaussian, Inc. or will provide
 assistance to any competitor of Gaussian, Inc.  The licensee
 of this program is prohibited from giving any competitor of
 Gaussian, Inc. access to this program.  By using this program,
 the user acknowledges that Gaussian, Inc. is engaged in the
 business of creating and licensing software in the field of
 computational chemistry and represents and warrants to the
 licensee that it is not a competitor of Gaussian, Inc. and that
 it will not use this program in any manner prohibited above.
 ---------------------------------------------------------------
  

 Cite this work as:
 Gaussian 09, Revision C.01,
 M. J. Frisch, G. W. Trucks, H. B. Schlegel, G. E. Scuseria, 
 M. A. Robb, J. R. Cheeseman, G. Scalmani, V. Barone, B. Mennucci, 
 G. A. Petersson, H. Nakatsuji, M. Caricato, X. Li, H. P. Hratchian, 
 A. F. Izmaylov, J. Bloino, G. Zheng, J. L. Sonnenberg, M. Hada, 
 M. Ehara, K. Toyota, R. Fukuda, J. Hasegawa, M. Ishida, T. Nakajima, 
 Y. Honda, O. Kitao, H. Nakai, T. Vreven, J. A. Montgomery, Jr., 
 J. E. Peralta, F. Ogliaro, M. Bearpark, J. J. Heyd, E. Brothers, 
 K. N. Kudin, V. N. Staroverov, T. Keith, R. Kobayashi, J. Normand, 
 K. Raghavachari, A. Rendell, J. C. Burant, S. S. Iyengar, J. Tomasi, 
 M. Cossi, N. Rega, J. M. Millam, M. Klene, J. E. Knox, J. B. Cross, 
 V. Bakken, C. Adamo, J. Jaramillo, R. Gomperts, R. E. Stratmann, 
 O. Yazyev, A. J. Austin, R. Cammi, C. Pomelli, J. W. Ochterski, 
 R. L. Martin, K. Morokuma, V. G. Zakrzewski, G. A. Voth, 
 P. Salvador, J. J. Dannenberg, S. Dapprich, A. D. Daniels, 
 O. Farkas, J. B. Foresman, J. V. Ortiz, J. Cioslowski, 
 and D. J. Fox, Gaussian, Inc., Wallingford CT, 2010.
 
 ******************************************
 Gaussian 09:  EM64L-G09RevC.01 23-Sep-2011
                16-Apr-2019 
 ******************************************
 %nprocshared=4
 Will use up to    4 processors via shared memory.
 -----------------------------------------------------------
 # B3LYP/6-31+G** test scrf=(pcm,solvent=water,smd,dovacuum)
 -----------------------------------------------------------
 1/38=1/1;
 2/12=2,17=6,18=5,40=1/2;
 3/5=1,6=6,7=111,11=2,16=1,25=1,30=1,70=32101,72=1,74=-5/1,2,3;
 4//1;
 5/5=2,38=5,53=1/2;
 6/7=2,8=2,9=2,10=2,28=1/1;
 99/5=1,9=1/99;
 -------
 comment
 -------
 Charge =  0 Multiplicity = 1
 Symbolic Z-Matrix:
 6                     1.94645   0.66152   0.15955 
 6                     0.69514   1.13899  -0.59758 
 6                     0.71163  -1.07293  -0.70728 
 6                    -0.84213  -0.05498   1.04741 
 6                    -0.55483  -1.28503   0.1463 
 6                    -0.56644   1.2542    0.27956 
 8                     0.5078    0.06209  -1.53476 
 8                     1.85012  -0.77585   0.08977 
 8                    -1.72366   1.46299  -0.53491 
 8                    -0.05615  -0.01666   2.23289 
 8                    -1.6583   -1.53107  -0.71958 
 1                     1.96832   0.97671   1.20385 
 1                     2.86134   0.98324  -0.3492 
 1                     0.86067   2.05645  -1.16852 
 1                     0.91554  -1.93745  -1.34461 
 1                    -1.91307  -0.07876   1.29356 
 1                    -0.43697  -2.18014   0.76737 
 1                    -0.4407    2.07054   1.00471 
 1                    -1.54712   2.20653  -1.13476 
 1                    -0.15978  -0.86773   2.68785 
 1                    -1.80571  -0.69207  -1.19529 
 
                          Input orientation:                          
 ---------------------------------------------------------------------
 Center     Atomic      Atomic             Coordinates (Angstroms)
 Number     Number       Type             X           Y           Z
 ---------------------------------------------------------------------
      1          6           0        1.946446    0.661515    0.159550
      2          6           0        0.695141    1.138992   -0.597577
      3          6           0        0.711633   -1.072929   -0.707282
      4          6           0       -0.842130   -0.054982    1.047407
      5          6           0       -0.554832   -1.285029    0.146299
      6          6           0       -0.566435    1.254204    0.279557
      7          8           0        0.507804    0.062094   -1.534757
      8          8           0        1.850124   -0.775852    0.089767
      9          8           0       -1.723663    1.462988   -0.534911
     10          8           0       -0.056146   -0.016658    2.232893
     11          8           0       -1.658302   -1.531066   -0.719578
     12          1           0        1.968320    0.976710    1.203851
     13          1           0        2.861339    0.983239   -0.349197
     14          1           0        0.860673    2.056452   -1.168523
     15          1           0        0.915544   -1.937448   -1.344610
     16          1           0       -1.913070   -0.078761    1.293560
     17          1           0       -0.436970   -2.180139    0.767366
     18          1           0       -0.440700    2.070544    1.004711
     19          1           0       -1.547123    2.206526   -1.134756
     20          1           0       -0.159777   -0.867727    2.687848
     21          1           0       -1.805713   -0.692071   -1.195289
 ---------------------------------------------------------------------
                    Distance matrix (angstroms):
                    1          2          3          4          5
     1  C    0.000000
     2  C    1.538502   0.000000
     3  C    2.298795   2.214701   0.000000
     4  C    3.012941   2.548480   2.555255   0.000000
     5  C    3.169480   2.826953   1.541921   1.551629   0.000000
     6  C    2.584619   1.540848   2.832465   1.542585   2.542754
     7  O    2.302102   1.439830   1.419344   2.916093   2.402058
     8  O    1.442280   2.339456   1.421163   2.947026   2.458917
     9  O    3.820253   2.441211   3.520121   2.363274   3.062974
    10  O    2.961257   3.148257   3.217114   1.422890   2.492253
    11  O    4.309813   3.561290   2.413842   2.442785   1.424052
    12  H    1.091050   2.211891   3.071272   2.997915   3.549673
    13  H    1.095153   2.185947   2.996212   4.091954   4.130470
    14  H    2.211002   1.093212   3.166699   3.502576   3.859781
    15  H    3.174880   3.173503   1.093234   3.514945   2.193277
    16  H    4.090214   3.444138   3.446854   1.099122   2.148511
    17  H    3.758339   3.763160   2.172508   2.181483   1.095827
    18  H    2.897952   2.173764   3.760348   2.163523   3.465511
    19  H    4.033276   2.540854   4.004939   3.220756   3.849247
    20  H    3.628643   3.943580   3.511178   1.953767   2.605702
    21  H    4.212657   3.156631   2.592342   2.522709   1.927735
                    6          7          8          9         10
     6  C    0.000000
     7  O    2.422158   0.000000
     8  O    3.161788   2.267830   0.000000
     9  O    1.430428   2.818092   4.263166   0.000000
    10  O    2.385583   3.810437   2.967024   3.553970   0.000000
    11  O    3.154072   2.809749   3.678918   3.000456   3.684755
    12  H    2.712251   3.235677   2.080055   4.109805   2.478744
    13  H    3.495481   2.791628   2.075969   4.613772   4.022276
    14  H    2.185675   2.058181   3.253345   2.726253   4.087539
    15  H    3.875671   2.049531   2.068860   4.379953   4.175182
    16  H    2.149052   3.725567   4.012067   2.399202   2.081915
    17  H    3.471229   3.349623   2.768025   4.077239   2.640728
    18  H    1.099122   3.373786   3.766559   2.094171   2.452086
    19  H    1.966964   2.996884   4.683516   0.971509   4.301932
    20  H    3.235402   4.375000   3.286057   4.273657   0.970588
    21  H    2.738424   2.456901   3.876020   2.255462   3.907633
                   11         12         13         14         15
    11  O    0.000000
    12  H    4.810500   0.000000
    13  H    5.185178   1.791503   0.000000
    14  H    4.406481   2.832116   2.413658   0.000000
    15  H    2.679644   4.011896   3.647928   3.998156   0.000000
    16  H    2.495360   4.023339   5.159600   4.279560   4.291354
    17  H    2.030751   3.992698   4.704521   4.835312   2.519650
    18  H    4.174604   2.653207   3.730786   2.533124   4.839701
    19  H    3.762224   4.397712   4.641990   2.412705   4.825069
    20  H    3.781025   3.183236   4.666568   4.946083   4.308287
    21  H    0.975676   4.773262   5.030299   3.829453   2.996415
                   16         17         18         19         20
    16  H    0.000000
    17  H    2.621362   0.000000
    18  H    2.621225   4.257306   0.000000
    19  H    3.354575   4.908496   2.412464   0.000000
    20  H    2.374983   2.342544   3.397838   5.097849   0.000000
    21  H    2.565549   2.817768   3.786199   2.910738   4.221222
                   21
    21  H    0.000000
 Stoichiometry    C6H10O5
 Framework group  C1[X(C6H10O5)]
 Deg. of freedom    57
 Full point group                 C1      NOp   1
 Largest Abelian subgroup         C1      NOp   1
 Largest concise Abelian subgroup C1      NOp   1
                         Standard orientation:                         
 ---------------------------------------------------------------------
 Center     Atomic      Atomic             Coordinates (Angstroms)
 Number     Number       Type             X           Y           Z
 ---------------------------------------------------------------------
      1          6           0        1.946446    0.661515    0.159550
      2          6           0        0.695141    1.138992   -0.597577
      3          6           0        0.711633   -1.072929   -0.707282
      4          6           0       -0.842130   -0.054982    1.047407
      5          6           0       -0.554832   -1.285029    0.146299
      6          6           0       -0.566435    1.254204    0.279557
      7          8           0        0.507804    0.062094   -1.534757
      8          8           0        1.850124   -0.775852    0.089767
      9          8           0       -1.723663    1.462988   -0.534911
     10          8           0       -0.056146   -0.016658    2.232893
     11          8           0       -1.658302   -1.531066   -0.719578
     12          1           0        1.968320    0.976710    1.203851
     13          1           0        2.861339    0.983239   -0.349197
     14          1           0        0.860673    2.056452   -1.168523
     15          1           0        0.915544   -1.937448   -1.344610
     16          1           0       -1.913070   -0.078761    1.293560
     17          1           0       -0.436970   -2.180139    0.767366
     18          1           0       -0.440700    2.070544    1.004711
     19          1           0       -1.547123    2.206526   -1.134756
     20          1           0       -0.159777   -0.867727    2.687848
     21          1           0       -1.805713   -0.692071   -1.195289
 ---------------------------------------------------------------------
 Rotational constants (GHZ):      1.4304165      1.2033114      1.1799206
 Standard basis: 6-31+G(d,p) (6D, 7F)
 There are   259 symmetry adapted basis functions of A   symmetry.
 Integral buffers will be    131072 words long.
 Raffenetti 2 integral format.
 Two-electron integral symmetry is turned on.
   259 basis functions,   422 primitive gaussians,   259 cartesian basis functions
    43 alpha electrons       43 beta electrons
       nuclear repulsion energy       737.5493604139 Hartrees.
 NAtoms=   21 NActive=   21 NUniq=   21 SFac= 1.00D+00 NAtFMM=   60 NAOKFM=F Big=F
 ------------------------------------------------------------------------------
 Polarizable Continuum Model (PCM)
 =================================
 Model                : C-PCM.
 Atomic radii         : SMD-Coulomb.
 Polarization charges : Total charges.
 Charge compensation  : None.
 Solution method      : Matrix inversion.
 Cavity type          : VdW (van der Waals Surface) (Alpha=1.000).
 Cavity algorithm     : GePol (No added spheres)
                        Default sphere list used, NSphG=   21.
                        Lebedev-Laikov grids with approx.  5.0 points / Ang**2.
                        Smoothing algorithm: Karplus/York (Gamma=1.0000).
                        Polarization charges: spherical gaussians, with
                                              point-specific exponents (IZeta= 3).
                        Self-potential: point-specific (ISelfS= 7).
                        Self-field    : sphere-specific E.n sum rule (ISelfD= 2).
 Solvent              : Water, Eps=  78.355300 Eps(inf)=   1.777849
 ------------------------------------------------------------------------------
 ------------------------------------------------------------------------------
 Atomic radii for non-electrostatic terms: SMD-CDS.
 ------------------------------------------------------------------------------
 Nuclear repulsion after PCM non-electrostatic terms =      737.5543650530 Hartrees.
 One-electron integrals computed using PRISM.
 NBasis=   259 RedAO= T  NBF=   259
 NBsUse=   259 1.00D-06 NBFU=   259
 Harris functional with IExCor=  402 diagonalized for initial guess.
 ExpMin= 4.38D-02 ExpMax= 5.48D+03 ExpMxC= 8.25D+02 IAcc=2 IRadAn=         4 AccDes= 0.00D+00
 HarFok:  IExCor=  402 AccDes= 0.00D+00 IRadAn=         4 IDoV= 1
 ScaDFX=  1.000000  1.000000  1.000000  1.000000
 FoFCou: FMM=F IPFlag=           0 FMFlag=      100000 FMFlg1=           0
         NFxFlg=           0 DoJE=T BraDBF=F KetDBF=T FulRan=T
         Omega=  0.000000  0.000000  1.000000  0.000000  0.000000 ICntrl=     500 IOpCl=  0
         NMat0=    1 NMatS0=    1 NMatT0=    0 NMatD0=    1 NMtDS0=    0 NMtDT0=    0
         I1Cent=           4 NGrid=           0.
 Petite list used in FoFCou.
 Initial guess orbital symmetries:
       Occupied  (A) (A) (A) (A) (A) (A) (A) (A) (A) (A) (A) (A)
                 (A) (A) (A) (A) (A) (A) (A) (A) (A) (A) (A) (A)
                 (A) (A) (A) (A) (A) (A) (A) (A) (A) (A) (A) (A)
                 (A) (A) (A) (A) (A) (A) (A)
       Virtual   (A) (A) (A) (A) (A) (A) (A) (A) (A) (A) (A) (A)
                 (A) (A) (A) (A) (A) (A) (A) (A) (A) (A) (A) (A)
                 (A) (A) (A) (A) (A) (A) (A) (A) (A) (A) (A) (A)
                 (A) (A) (A) (A) (A) (A) (A) (A) (A) (A) (A) (A)
                 (A) (A) (A) (A) (A) (A) (A) (A) (A) (A) (A) (A)
                 (A) (A) (A) (A) (A) (A) (A) (A) (A) (A) (A) (A)
                 (A) (A) (A) (A) (A) (A) (A) (A) (A) (A) (A) (A)
                 (A) (A) (A) (A) (A) (A) (A) (A) (A) (A) (A) (A)
                 (A) (A) (A) (A) (A) (A) (A) (A) (A) (A) (A) (A)
                 (A) (A) (A) (A) (A) (A) (A) (A) (A) (A) (A) (A)
                 (A) (A) (A) (A) (A) (A) (A) (A) (A) (A) (A) (A)
                 (A) (A) (A) (A) (A) (A) (A) (A) (A) (A) (A) (A)
                 (A) (A) (A) (A) (A) (A) (A) (A) (A) (A) (A) (A)
                 (A) (A) (A) (A) (A) (A) (A) (A) (A) (A) (A) (A)
                 (A) (A) (A) (A) (A) (A) (A) (A) (A) (A) (A) (A)
                 (A) (A) (A) (A) (A) (A) (A) (A) (A) (A) (A) (A)
                 (A) (A) (A) (A) (A) (A) (A) (A) (A) (A) (A) (A)
                 (A) (A) (A) (A) (A) (A) (A) (A) (A) (A) (A) (A)
 The electronic state of the initial guess is 1-A.
 Requested convergence on RMS density matrix=1.00D-08 within 128 cycles.
 Requested convergence on MAX density matrix=1.00D-06.
 Requested convergence on             energy=1.00D-06.
 No special actions if energy rises.
 Error on total polarization charges =  0.05649
 SCF Done:  E(RB3LYP) =  -610.804829073     A.U. after   12 cycles
             Convg  =    0.5928D-08             -V/T =  2.0090
 SMD-CDS (non-electrostatic) energy       (kcal/mol) =       3.14
 (included in total energy above)

 **********************************************************************

            Population analysis using the SCF density.

 **********************************************************************

 Orbital symmetries:
       Occupied  (A) (A) (A) (A) (A) (A) (A) (A) (A) (A) (A) (A)
                 (A) (A) (A) (A) (A) (A) (A) (A) (A) (A) (A) (A)
                 (A) (A) (A) (A) (A) (A) (A) (A) (A) (A) (A) (A)
                 (A) (A) (A) (A) (A) (A) (A)
       Virtual   (A) (A) (A) (A) (A) (A) (A) (A) (A) (A) (A) (A)
                 (A) (A) (A) (A) (A) (A) (A) (A) (A) (A) (A) (A)
                 (A) (A) (A) (A) (A) (A) (A) (A) (A) (A) (A) (A)
                 (A) (A) (A) (A) (A) (A) (A) (A) (A) (A) (A) (A)
                 (A) (A) (A) (A) (A) (A) (A) (A) (A) (A) (A) (A)
                 (A) (A) (A) (A) (A) (A) (A) (A) (A) (A) (A) (A)
                 (A) (A) (A) (A) (A) (A) (A) (A) (A) (A) (A) (A)
                 (A) (A) (A) (A) (A) (A) (A) (A) (A) (A) (A) (A)
                 (A) (A) (A) (A) (A) (A) (A) (A) (A) (A) (A) (A)
                 (A) (A) (A) (A) (A) (A) (A) (A) (A) (A) (A) (A)
                 (A) (A) (A) (A) (A) (A) (A) (A) (A) (A) (A) (A)
                 (A) (A) (A) (A) (A) (A) (A) (A) (A) (A) (A) (A)
                 (A) (A) (A) (A) (A) (A) (A) (A) (A) (A) (A) (A)
                 (A) (A) (A) (A) (A) (A) (A) (A) (A) (A) (A) (A)
                 (A) (A) (A) (A) (A) (A) (A) (A) (A) (A) (A) (A)
                 (A) (A) (A) (A) (A) (A) (A) (A) (A) (A) (A) (A)
                 (A) (A) (A) (A) (A) (A) (A) (A) (A) (A) (A) (A)
                 (A) (A) (A) (A) (A) (A) (A) (A) (A) (A) (A) (A)
 The electronic state is 1-A.
 Alpha  occ. eigenvalues --  -19.18200 -19.17534 -19.17319 -19.16956 -19.16949
 Alpha  occ. eigenvalues --  -10.29167 -10.25033 -10.24912 -10.24777 -10.24486
 Alpha  occ. eigenvalues --  -10.23870  -1.11202  -1.04811  -1.03514  -1.03414
 Alpha  occ. eigenvalues --   -1.00950  -0.79268  -0.77533  -0.68143  -0.65739
 Alpha  occ. eigenvalues --   -0.62835  -0.58021  -0.55621  -0.54637  -0.51997
 Alpha  occ. eigenvalues --   -0.50094  -0.47393  -0.45839  -0.45211  -0.44291
 Alpha  occ. eigenvalues --   -0.43295  -0.42569  -0.39718  -0.39020  -0.38551
 Alpha  occ. eigenvalues --   -0.37289  -0.35276  -0.33340  -0.31316  -0.29948
 Alpha  occ. eigenvalues --   -0.29750  -0.28121  -0.25762
 Alpha virt. eigenvalues --    0.00810   0.01253   0.02637   0.02890   0.03937
 Alpha virt. eigenvalues --    0.04422   0.05191   0.05477   0.06170   0.08193
 Alpha virt. eigenvalues --    0.08916   0.09686   0.10259   0.10368   0.11502
 Alpha virt. eigenvalues --    0.12267   0.12849   0.13558   0.13861   0.14049
 Alpha virt. eigenvalues --    0.14869   0.16148   0.16820   0.17319   0.17382
 Alpha virt. eigenvalues --    0.17758   0.19017   0.19676   0.20129   0.20996
 Alpha virt. eigenvalues --    0.21040   0.22129   0.22609   0.23280   0.23821
 Alpha virt. eigenvalues --    0.24654   0.25220   0.25847   0.26124   0.26595
 Alpha virt. eigenvalues --    0.27519   0.28217   0.28924   0.29595   0.30161
 Alpha virt. eigenvalues --    0.30806   0.31512   0.31792   0.32496   0.32965
 Alpha virt. eigenvalues --    0.33867   0.34428   0.34723   0.35824   0.36229
 Alpha virt. eigenvalues --    0.37152   0.37996   0.38332   0.39672   0.40476
 Alpha virt. eigenvalues --    0.41866   0.42849   0.43900   0.44678   0.46776
 Alpha virt. eigenvalues --    0.50866   0.63971   0.65522   0.66830   0.67923
 Alpha virt. eigenvalues --    0.69185   0.70967   0.71794   0.74751   0.75950
 Alpha virt. eigenvalues --    0.78852   0.79716   0.81690   0.84172   0.85631
 Alpha virt. eigenvalues --    0.87906   0.92452   0.94830   0.97959   0.98824
 Alpha virt. eigenvalues --    1.00323   1.02404   1.04469   1.05375   1.06175
 Alpha virt. eigenvalues --    1.06670   1.08474   1.10356   1.11550   1.12641
 Alpha virt. eigenvalues --    1.16998   1.19915   1.21378   1.24496   1.25464
 Alpha virt. eigenvalues --    1.27171   1.28898   1.28952   1.30905   1.33165
 Alpha virt. eigenvalues --    1.33328   1.34697   1.37558   1.38765   1.39993
 Alpha virt. eigenvalues --    1.43212   1.44434   1.45479   1.47923   1.48867
 Alpha virt. eigenvalues --    1.52145   1.55581   1.58088   1.59458   1.59550
 Alpha virt. eigenvalues --    1.60667   1.62736   1.66773   1.69335   1.70149
 Alpha virt. eigenvalues --    1.71517   1.73627   1.75188   1.77646   1.78387
 Alpha virt. eigenvalues --    1.78836   1.84407   1.84755   1.85446   1.88441
 Alpha virt. eigenvalues --    1.89880   1.93489   1.95084   1.96954   1.98476
 Alpha virt. eigenvalues --    2.00453   2.01811   2.04336   2.05886   2.06833
 Alpha virt. eigenvalues --    2.10282   2.11779   2.12687   2.13614   2.16908
 Alpha virt. eigenvalues --    2.20326   2.21616   2.23494   2.28260   2.30193
 Alpha virt. eigenvalues --    2.30712   2.36476   2.37251   2.40559   2.40888
 Alpha virt. eigenvalues --    2.43652   2.47179   2.48396   2.49542   2.49947
 Alpha virt. eigenvalues --    2.53351   2.57612   2.60746   2.61217   2.64254
 Alpha virt. eigenvalues --    2.65956   2.66631   2.67584   2.69264   2.71263
 Alpha virt. eigenvalues --    2.72990   2.73779   2.76669   2.77702   2.81268
 Alpha virt. eigenvalues --    2.81407   2.82415   2.86473   2.88879   2.89608
 Alpha virt. eigenvalues --    2.92620   2.94355   2.96005   2.98563   3.01911
 Alpha virt. eigenvalues --    3.04111   3.05897   3.12178   3.18163   3.22781
 Alpha virt. eigenvalues --    3.35528   3.39181   3.43274   3.46234   3.47015
 Alpha virt. eigenvalues --    3.48291   3.52496   3.54640   3.58578   3.61194
 Alpha virt. eigenvalues --    4.26905   4.34743   4.43326   4.45928   4.49291
 Alpha virt. eigenvalues --    4.53129   4.62126   4.81002   4.88096   4.95977
 Alpha virt. eigenvalues --    5.05614
          Condensed to atoms (all electrons):
              1          2          3          4          5          6
     1  C    5.614099  -0.217421  -0.454805  -0.331118   0.324930   0.136059
     2  C   -0.217421   7.068061  -0.525041   0.562414  -0.021823  -1.189433
     3  C   -0.454805  -0.525041   6.698706   0.293293  -1.086166   0.459837
     4  C   -0.331118   0.562414   0.293293   6.548160  -0.636807  -0.557821
     5  C    0.324930  -0.021823  -1.086166  -0.636807   6.940261  -0.224024
     6  C    0.136059  -1.189433   0.459837  -0.557821  -0.224024   7.018009
     7  O   -0.008822   0.102046   0.212477  -0.112903  -0.052186  -0.058653
     8  O    0.144390  -0.117539   0.326689   0.052372  -0.180477  -0.032207
     9  O    0.026279  -0.009106  -0.077142  -0.115411   0.092363   0.109270
    10  O    0.019947  -0.034259  -0.036278   0.144300   0.042617  -0.091621
    11  O    0.002111  -0.009986  -0.139095  -0.065979   0.268342   0.013925
    12  H    0.478565  -0.175446   0.011820  -0.046483   0.011180   0.083184
    13  H    0.408268  -0.006386  -0.022179   0.002296   0.009167  -0.015158
    14  H    0.002436   0.314224   0.020165   0.000688  -0.009525   0.011110
    15  H    0.009434   0.049475   0.346784   0.031991  -0.031510  -0.043896
    16  H    0.001902  -0.022271   0.015738   0.297843   0.001295   0.020835
    17  H    0.013895  -0.031381  -0.028401  -0.083531   0.419968   0.038908
    18  H    0.017242   0.030778  -0.036315  -0.044970   0.046870   0.276053
    19  H    0.007425  -0.041424   0.013404   0.020657  -0.021055   0.029549
    20  H   -0.000632  -0.011250   0.019353   0.038646  -0.059739   0.020341
    21  H    0.001666  -0.026542  -0.024200  -0.056043   0.039702   0.048510
              7          8          9         10         11         12
     1  C   -0.008822   0.144390   0.026279   0.019947   0.002111   0.478565
     2  C    0.102046  -0.117539  -0.009106  -0.034259  -0.009986  -0.175446
     3  C    0.212477   0.326689  -0.077142  -0.036278  -0.139095   0.011820
     4  C   -0.112903   0.052372  -0.115411   0.144300  -0.065979  -0.046483
     5  C   -0.052186  -0.180477   0.092363   0.042617   0.268342   0.011180
     6  C   -0.058653  -0.032207   0.109270  -0.091621   0.013925   0.083184
     7  O    8.410208  -0.040293   0.011983   0.008725   0.011731   0.009768
     8  O   -0.040293   8.408194  -0.000706  -0.000604   0.006782  -0.042980
     9  O    0.011983  -0.000706   8.385634   0.010929  -0.012027  -0.000219
    10  O    0.008725  -0.000604   0.010929   8.344124   0.005176  -0.003836
    11  O    0.011731   0.006782  -0.012027   0.005176   8.280749  -0.000029
    12  H    0.009768  -0.042980  -0.000219  -0.003836  -0.000029   0.534429
    13  H   -0.000365  -0.051236  -0.000105   0.000683   0.000092  -0.039924
    14  H   -0.034600   0.007346  -0.010121  -0.000308   0.000114   0.002320
    15  H   -0.045229  -0.043506   0.001049  -0.000511   0.006706  -0.000258
    16  H   -0.001066  -0.000291  -0.003402  -0.034837   0.000932  -0.000041
    17  H    0.010100   0.000991  -0.000850  -0.010627  -0.052555   0.000028
    18  H    0.008597  -0.000623  -0.027355   0.001826  -0.000666   0.000300
    19  H   -0.002912   0.000023   0.240920  -0.000638   0.000999   0.000010
    20  H    0.000113  -0.003680  -0.000692   0.244428   0.000396   0.000283
    21  H    0.014793  -0.000567   0.005155   0.000239   0.252914  -0.000001
             13         14         15         16         17         18
     1  C    0.408268   0.002436   0.009434   0.001902   0.013895   0.017242
     2  C   -0.006386   0.314224   0.049475  -0.022271  -0.031381   0.030778
     3  C   -0.022179   0.020165   0.346784   0.015738  -0.028401  -0.036315
     4  C    0.002296   0.000688   0.031991   0.297843  -0.083531  -0.044970
     5  C    0.009167  -0.009525  -0.031510   0.001295   0.419968   0.046870
     6  C   -0.015158   0.011110  -0.043896   0.020835   0.038908   0.276053
     7  O   -0.000365  -0.034600  -0.045229  -0.001066   0.010100   0.008597
     8  O   -0.051236   0.007346  -0.043506  -0.000291   0.000991  -0.000623
     9  O   -0.000105  -0.010121   0.001049  -0.003402  -0.000850  -0.027355
    10  O    0.000683  -0.000308  -0.000511  -0.034837  -0.010627   0.001826
    11  O    0.000092   0.000114   0.006706   0.000932  -0.052555  -0.000666
    12  H   -0.039924   0.002320  -0.000258  -0.000041   0.000028   0.000300
    13  H    0.554202  -0.004327   0.000288   0.000004  -0.000007   0.000006
    14  H   -0.004327   0.521933  -0.000049  -0.000133   0.000023  -0.002704
    15  H    0.000288  -0.000049   0.555849  -0.000166  -0.003330   0.000026
    16  H    0.000004  -0.000133  -0.000166   0.572042  -0.003383  -0.003766
    17  H   -0.000007   0.000023  -0.003330  -0.003383   0.545443  -0.000139
    18  H    0.000006  -0.002704   0.000026  -0.003766  -0.000139   0.573391
    19  H   -0.000013   0.004302  -0.000009   0.000264   0.000016  -0.004846
    20  H   -0.000015   0.000012  -0.000017  -0.005457   0.004962   0.000091
    21  H    0.000000   0.000054  -0.000709  -0.001526   0.006022  -0.000061
             19         20         21
     1  C    0.007425  -0.000632   0.001666
     2  C   -0.041424  -0.011250  -0.026542
     3  C    0.013404   0.019353  -0.024200
     4  C    0.020657   0.038646  -0.056043
     5  C   -0.021055  -0.059739   0.039702
     6  C    0.029549   0.020341   0.048510
     7  O   -0.002912   0.000113   0.014793
     8  O    0.000023  -0.003680  -0.000567
     9  O    0.240920  -0.000692   0.005155
    10  O   -0.000638   0.244428   0.000239
    11  O    0.000999   0.000396   0.252914
    12  H    0.000010   0.000283  -0.000001
    13  H   -0.000013  -0.000015   0.000000
    14  H    0.004302   0.000012   0.000054
    15  H   -0.000009  -0.000017  -0.000709
    16  H    0.000264  -0.005457  -0.001526
    17  H    0.000016   0.004962   0.006022
    18  H   -0.004846   0.000091  -0.000061
    19  H    0.342415   0.000010   0.000034
    20  H    0.000010   0.339264   0.000021
    21  H    0.000034   0.000021   0.335152
 Mulliken atomic charges:
              1
     1  C   -0.195848
     2  C    0.312311
     3  C    0.011352
     4  C    0.058405
     5  C    0.126618
     6  C   -0.052779
     7  O   -0.443512
     8  O   -0.432078
     9  O   -0.626446
    10  O   -0.609472
    11  O   -0.570632
    12  H    0.177329
    13  H    0.164707
    14  H    0.177039
    15  H    0.167588
    16  H    0.165484
    17  H    0.173849
    18  H    0.166267
    19  H    0.410871
    20  H    0.413560
    21  H    0.405385
 Sum of Mulliken atomic charges =   0.00000
 Mulliken charges with hydrogens summed into heavy atoms:
              1
     1  C    0.146188
     2  C    0.489351
     3  C    0.178940
     4  C    0.223890
     5  C    0.300467
     6  C    0.113488
     7  O   -0.443512
     8  O   -0.432078
     9  O   -0.215575
    10  O   -0.195913
    11  O   -0.165247
 Sum of Mulliken charges with hydrogens summed into heavy atoms =   0.00000
 Electronic spatial extent (au):  <R**2>=           1335.6673
 Charge=              0.0000 electrons
 Dipole moment (field-independent basis, Debye):
    X=              1.0663    Y=              3.5095    Z=              0.9099  Tot=              3.7790
 Quadrupole moment (field-independent basis, Debye-Ang):
   XX=            -73.2074   YY=            -56.3820   ZZ=            -65.4573
   XY=              0.5923   XZ=             -2.1091   YZ=             -8.9890
 Traceless Quadrupole moment (field-independent basis, Debye-Ang):
   XX=             -8.1919   YY=              8.6336   ZZ=             -0.4417
   XY=              0.5923   XZ=             -2.1091   YZ=             -8.9890
 Octapole moment (field-independent basis, Debye-Ang**2):
  XXX=              9.7182  YYY=             22.8074  ZZZ=              7.9026  XYY=              6.8986
  XXY=             18.0064  XXZ=             -1.0996  XZZ=             -9.2415  YZZ=             -8.5374
  YYZ=             -2.7980  XYZ=             10.7196
 Hexadecapole moment (field-independent basis, Debye-Ang**3):
 XXXX=           -708.1103 YYYY=           -463.3777 ZZZZ=           -465.6881 XXXY=             14.9309
 XXXZ=              0.4592 YYYX=            -38.6191 YYYZ=            -43.1086 ZZZX=             10.6455
 ZZZY=            -51.3676 XXYY=           -219.5360 XXZZ=           -179.0938 YYZZ=           -134.2871
 XXYZ=            -11.3132 YYXZ=             -4.4556 ZZXY=             -7.6715
 N-N= 7.375543650530D+02 E-N=-2.905399042757D+03  KE= 6.053570275875D+02

 Test job not archived.
 1\1\GINC-COMPUTE-10-1\SP\RB3LYP\6-31+G(d,p)\C6H10O5\ASAROTTI.IQUIR\16-
 Apr-2019\0\\# B3LYP/6-31+G** test scrf=(pcm,solvent=water,smd,dovacuum
 )\\comment\\0,1\C,0,1.946446,0.661515,0.15955\C,0,0.695141,1.138992,-0
 .597577\C,0,0.711633,-1.072929,-0.707282\C,0,-0.84213,-0.054982,1.0474
 07\C,0,-0.554832,-1.285029,0.146299\C,0,-0.566435,1.254204,0.279557\O,
 0,0.507804,0.062094,-1.534757\O,0,1.850124,-0.775852,0.089767\O,0,-1.7
 23663,1.462988,-0.534911\O,0,-0.056146,-0.016658,2.232893\O,0,-1.65830
 2,-1.531066,-0.719578\H,0,1.96832,0.97671,1.203851\H,0,2.861339,0.9832
 39,-0.349197\H,0,0.860673,2.056452,-1.168523\H,0,0.915544,-1.937448,-1
 .34461\H,0,-1.91307,-0.078761,1.29356\H,0,-0.43697,-2.180139,0.767366\
 H,0,-0.4407,2.070544,1.004711\H,0,-1.547123,2.206526,-1.134756\H,0,-0.
 159777,-0.867727,2.687848\H,0,-1.805713,-0.692071,-1.195289\\Version=E
 M64L-G09RevC.01\State=1-A\HF=-610.8048291\RMSD=5.928e-09\Dipole=0.4194
 976,1.3807304,0.3579782\Quadrupole=-6.0904553,6.4188653,-0.32841,0.440
 353,-1.5680404,-6.6831352\PG=C01 [X(C6H10O5)]\\@


 OUR LITTLE SYSTEMS HAVE THEIR DAY,    
   THEY HAVE THEIR DAY AND CEASE TO BE.
   THEY ARE BUT BROKEN LIGHTS OF THEE, 
 AND THOU, OH LORD, ART MORE THAN THEY.
          -------------------          
 LET KNOWLEDGE GROW FROM MORE TO MORE, 
   BUT MORE OF REVERENCE IN US DWELL.  
   THAT MIND AND SOUL, ACCORDING WELL, 
 MAY MAKE ONE MUSIC AS BEFORE.....     
          -------------------          
                    LORD TENNYSON      
 Job cpu time:  0 days  0 hours 14 minutes 51.8 seconds.
 File lengths (MBytes):  RWF=     56 Int=      0 D2E=      0 Chk=      4 Scr=      1
 Normal termination of Gaussian 09 at Tue Apr 16 01:50:40 2019.
