 Entering Gaussian System, Link 0=g09
 Input=/home/asarotti.iquir/SCF3/01_RSR_Levo26_OPTB_energy_b3lyp_smd.gjc
 Output=/home/asarotti.iquir/SCF3/01_RSR_Levo26_OPTB_energy_b3lyp_smd.log
 Initial command:
 /share/apps/Gaussian09/EM64T.SSE4.2-enabled/g09/l1.exe /tmp/Gau-4383.inp -scrdir=/tmp/
 Entering Link 1 = /share/apps/Gaussian09/EM64T.SSE4.2-enabled/g09/l1.exe PID=      4384.
  
 Copyright (c) 1988,1990,1992,1993,1995,1998,2003,2009,2011,
            Gaussian, Inc.  All Rights Reserved.
  
 This is part of the Gaussian(R) 09 program.  It is based on
 the Gaussian(R) 03 system (copyright 2003, Gaussian, Inc.),
 the Gaussian(R) 98 system (copyright 1998, Gaussian, Inc.),
 the Gaussian(R) 94 system (copyright 1995, Gaussian, Inc.),
 the Gaussian 92(TM) system (copyright 1992, Gaussian, Inc.),
 the Gaussian 90(TM) system (copyright 1990, Gaussian, Inc.),
 the Gaussian 88(TM) system (copyright 1988, Gaussian, Inc.),
 the Gaussian 86(TM) system (copyright 1986, Carnegie Mellon
 University), and the Gaussian 82(TM) system (copyright 1983,
 Carnegie Mellon University). Gaussian is a federally registered
 trademark of Gaussian, Inc.
  
 This software contains proprietary and confidential information,
 including trade secrets, belonging to Gaussian, Inc.
  
 This software is provided under written license and may be
 used, copied, transmitted, or stored only in accord with that
 written license.
  
 The following legend is applicable only to US Government
 contracts under FAR:
  
                    RESTRICTED RIGHTS LEGEND
  
 Use, reproduction and disclosure by the US Government is
 subject to restrictions as set forth in subparagraphs (a)
 and (c) of the Commercial Computer Software - Restricted
 Rights clause in FAR 52.227-19.
  
 Gaussian, Inc.
 340 Quinnipiac St., Bldg. 40, Wallingford CT 06492
  
  
 ---------------------------------------------------------------
 Warning -- This program may not be used in any manner that
 competes with the business of Gaussian, Inc. or will provide
 assistance to any competitor of Gaussian, Inc.  The licensee
 of this program is prohibited from giving any competitor of
 Gaussian, Inc. access to this program.  By using this program,
 the user acknowledges that Gaussian, Inc. is engaged in the
 business of creating and licensing software in the field of
 computational chemistry and represents and warrants to the
 licensee that it is not a competitor of Gaussian, Inc. and that
 it will not use this program in any manner prohibited above.
 ---------------------------------------------------------------
  

 Cite this work as:
 Gaussian 09, Revision C.01,
 M. J. Frisch, G. W. Trucks, H. B. Schlegel, G. E. Scuseria, 
 M. A. Robb, J. R. Cheeseman, G. Scalmani, V. Barone, B. Mennucci, 
 G. A. Petersson, H. Nakatsuji, M. Caricato, X. Li, H. P. Hratchian, 
 A. F. Izmaylov, J. Bloino, G. Zheng, J. L. Sonnenberg, M. Hada, 
 M. Ehara, K. Toyota, R. Fukuda, J. Hasegawa, M. Ishida, T. Nakajima, 
 Y. Honda, O. Kitao, H. Nakai, T. Vreven, J. A. Montgomery, Jr., 
 J. E. Peralta, F. Ogliaro, M. Bearpark, J. J. Heyd, E. Brothers, 
 K. N. Kudin, V. N. Staroverov, T. Keith, R. Kobayashi, J. Normand, 
 K. Raghavachari, A. Rendell, J. C. Burant, S. S. Iyengar, J. Tomasi, 
 M. Cossi, N. Rega, J. M. Millam, M. Klene, J. E. Knox, J. B. Cross, 
 V. Bakken, C. Adamo, J. Jaramillo, R. Gomperts, R. E. Stratmann, 
 O. Yazyev, A. J. Austin, R. Cammi, C. Pomelli, J. W. Ochterski, 
 R. L. Martin, K. Morokuma, V. G. Zakrzewski, G. A. Voth, 
 P. Salvador, J. J. Dannenberg, S. Dapprich, A. D. Daniels, 
 O. Farkas, J. B. Foresman, J. V. Ortiz, J. Cioslowski, 
 and D. J. Fox, Gaussian, Inc., Wallingford CT, 2010.
 
 ******************************************
 Gaussian 09:  EM64L-G09RevC.01 23-Sep-2011
                15-Apr-2019 
 ******************************************
 %nprocshared=4
 Will use up to    4 processors via shared memory.
 -----------------------------------------------------------
 # B3LYP/6-31+G** test scrf=(pcm,solvent=water,smd,dovacuum)
 -----------------------------------------------------------
 1/38=1/1;
 2/12=2,17=6,18=5,40=1/2;
 3/5=1,6=6,7=111,11=2,16=1,25=1,30=1,70=32101,72=1,74=-5/1,2,3;
 4//1;
 5/5=2,38=5,53=1/2;
 6/7=2,8=2,9=2,10=2,28=1/1;
 99/5=1,9=1/99;
 -------
 comment
 -------
 Charge =  0 Multiplicity = 1
 Symbolic Z-Matrix:
 6                     2.03124   0.44701   0.14957 
 6                     0.85484   1.06212  -0.60971 
 6                     0.56763  -1.14131  -0.69239 
 6                    -0.87517   0.04801   0.98388 
 6                    -0.74322  -1.22202   0.10098 
 6                    -0.37312   1.33909   0.26794 
 8                     0.56296  -0.00979  -1.5295 
 8                     1.65027  -0.94648   0.24453 
 8                    -1.35893   1.89184  -0.59897 
 8                    -0.19049  -0.14387   2.2237 
 8                    -1.78565  -1.36833  -0.85133 
 1                     2.18004   0.84479   1.1557 
 1                     2.96013   0.53635  -0.42267 
 1                     1.1161    1.94473  -1.19571 
 1                     0.74804  -2.03008  -1.30209 
 1                    -1.93215   0.19332   1.23854 
 1                    -0.69883  -2.08989   0.77466 
 1                    -0.09388   2.05705   1.05299 
 1                    -2.11286   2.16312  -0.05096 
 1                     0.63243  -0.61813   2.00681 
 1                    -2.59752  -1.58565  -0.36635 
 
                          Input orientation:                          
 ---------------------------------------------------------------------
 Center     Atomic      Atomic             Coordinates (Angstroms)
 Number     Number       Type             X           Y           Z
 ---------------------------------------------------------------------
      1          6           0        2.031243    0.447012    0.149566
      2          6           0        0.854843    1.062123   -0.609710
      3          6           0        0.567634   -1.141305   -0.692392
      4          6           0       -0.875171    0.048008    0.983880
      5          6           0       -0.743217   -1.222018    0.100979
      6          6           0       -0.373122    1.339092    0.267943
      7          8           0        0.562960   -0.009793   -1.529496
      8          8           0        1.650268   -0.946479    0.244527
      9          8           0       -1.358929    1.891840   -0.598968
     10          8           0       -0.190493   -0.143874    2.223696
     11          8           0       -1.785651   -1.368331   -0.851326
     12          1           0        2.180043    0.844785    1.155702
     13          1           0        2.960132    0.536354   -0.422668
     14          1           0        1.116102    1.944730   -1.195710
     15          1           0        0.748041   -2.030079   -1.302089
     16          1           0       -1.932147    0.193320    1.238538
     17          1           0       -0.698826   -2.089891    0.774660
     18          1           0       -0.093884    2.057052    1.052991
     19          1           0       -2.112863    2.163123   -0.050955
     20          1           0        0.632426   -0.618128    2.006813
     21          1           0       -2.597515   -1.585648   -0.366346
 ---------------------------------------------------------------------
                    Distance matrix (angstroms):
                    1          2          3          4          5
     1  C    0.000000
     2  C    1.529307   0.000000
     3  C    2.318145   2.223605   0.000000
     4  C    3.050004   2.561427   2.511183   0.000000
     5  C    3.238155   2.876834   1.534367   1.552383   0.000000
     6  C    2.567254   1.534563   2.821282   1.559332   2.593093
     7  O    2.276790   1.442292   1.407510   2.896312   2.415375
     8  O    1.447749   2.323124   1.444947   2.813092   2.413565
     9  O    3.760465   2.364177   3.594488   2.477730   3.250406
    10  O    3.096332   3.251976   3.173830   1.429247   2.444141
    11  O    4.343493   3.596901   2.369547   2.490576   1.419493
    12  H    1.092096   2.218123   3.155926   3.162074   3.732233
    13  H    1.094655   2.177994   2.934508   4.114172   4.132901
    14  H    2.211427   1.091168   3.174548   3.509036   3.894453
    15  H    3.144819   3.170569   1.092793   3.489831   2.201230
    16  H    4.118092   3.455163   3.429084   1.096889   2.170432
    17  H    3.778875   3.776978   2.157772   2.155338   1.099555
    18  H    2.815061   2.157439   3.703168   2.156721   3.475667
    19  H    4.489862   3.214294   4.302993   2.660165   3.654886
    20  H    2.557456   3.117516   2.750204   1.939840   2.426784
    21  H    5.081660   4.357602   3.212774   2.731009   1.946546
                    6          7          8          9         10
     6  C    0.000000
     7  O    2.434446   0.000000
     8  O    3.052620   2.281836   0.000000
     9  O    1.424388   2.859326   4.221706   0.000000
    10  O    2.461201   3.830420   2.819519   3.671077   0.000000
    11  O    3.252405   2.796697   3.631032   3.297649   3.674178
    12  H    2.747928   3.248930   2.078347   4.086504   2.781636
    13  H    3.497415   2.696253   2.087986   4.530200   4.170418
    14  H    2.174136   2.058528   3.273943   2.546503   4.214474
    15  H    3.882437   2.041452   2.092898   4.507233   4.107283
    16  H    2.164580   3.732134   3.888560   2.567095   2.029186
    17  H    3.481490   3.350828   2.665835   4.263423   2.478929
    18  H    1.099882   3.372318   3.566073   2.087248   2.494786
    19  H    1.951262   3.750690   4.890612   0.970736   3.767198
    20  H    2.804551   3.588924   2.061424   4.129834   0.974244
    21  H    3.728854   3.718177   4.338820   3.698801   3.818479
                   11         12         13         14         15
    11  O    0.000000
    12  H    4.965156   0.000000
    13  H    5.131669   1.787434   0.000000
    14  H    4.417595   2.805528   2.445724   0.000000
    15  H    2.657196   4.044281   3.500472   3.993231   0.000000
    16  H    2.612996   4.164298   5.177999   4.276076   4.310649
    17  H    2.084627   4.128608   4.660336   4.842983   2.531776
    18  H    4.268694   2.578931   3.717137   2.556040   4.791647
    19  H    3.635771   4.650062   5.340396   3.432838   5.228102
    20  H    3.818227   2.293387   3.557165   4.130174   3.599417
    21  H    0.970338   5.572136   5.949244   5.190603   3.502268
                   16         17         18         19         20
    16  H    0.000000
    17  H    2.636156   0.000000
    18  H    2.624335   4.200067   0.000000
    19  H    2.361265   4.557331   2.303524   0.000000
    20  H    2.797450   2.335919   2.931534   4.416603   0.000000
    21  H    2.486583   2.271822   4.642408   3.793105   4.123166
                   21
    21  H    0.000000
 Stoichiometry    C6H10O5
 Framework group  C1[X(C6H10O5)]
 Deg. of freedom    57
 Full point group                 C1      NOp   1
 Largest Abelian subgroup         C1      NOp   1
 Largest concise Abelian subgroup C1      NOp   1
                         Standard orientation:                         
 ---------------------------------------------------------------------
 Center     Atomic      Atomic             Coordinates (Angstroms)
 Number     Number       Type             X           Y           Z
 ---------------------------------------------------------------------
      1          6           0        2.031243    0.447013    0.149566
      2          6           0        0.854842    1.062124   -0.609710
      3          6           0        0.567635   -1.141305   -0.692392
      4          6           0       -0.875171    0.048008    0.983880
      5          6           0       -0.743216   -1.222018    0.100979
      6          6           0       -0.373123    1.339092    0.267943
      7          8           0        0.562960   -0.009793   -1.529496
      8          8           0        1.650268   -0.946478    0.244527
      9          8           0       -1.358930    1.891839   -0.598968
     10          8           0       -0.190493   -0.143874    2.223696
     11          8           0       -1.785650   -1.368332   -0.851326
     12          1           0        2.180042    0.844786    1.155702
     13          1           0        2.960132    0.536356   -0.422668
     14          1           0        1.116101    1.944731   -1.195710
     15          1           0        0.748042   -2.030078   -1.302089
     16          1           0       -1.932147    0.193319    1.238538
     17          1           0       -0.698825   -2.089891    0.774660
     18          1           0       -0.093885    2.057052    1.052991
     19          1           0       -2.112864    2.163122   -0.050955
     20          1           0        0.632426   -0.618128    2.006813
     21          1           0       -2.597514   -1.585649   -0.366346
 ---------------------------------------------------------------------
 Rotational constants (GHZ):      1.3743522      1.2292770      1.1510577
 Standard basis: 6-31+G(d,p) (6D, 7F)
 There are   259 symmetry adapted basis functions of A   symmetry.
 Integral buffers will be    131072 words long.
 Raffenetti 2 integral format.
 Two-electron integral symmetry is turned on.
   259 basis functions,   422 primitive gaussians,   259 cartesian basis functions
    43 alpha electrons       43 beta electrons
       nuclear repulsion energy       734.7641724330 Hartrees.
 NAtoms=   21 NActive=   21 NUniq=   21 SFac= 1.00D+00 NAtFMM=   60 NAOKFM=F Big=F
 ------------------------------------------------------------------------------
 Polarizable Continuum Model (PCM)
 =================================
 Model                : C-PCM.
 Atomic radii         : SMD-Coulomb.
 Polarization charges : Total charges.
 Charge compensation  : None.
 Solution method      : Matrix inversion.
 Cavity type          : VdW (van der Waals Surface) (Alpha=1.000).
 Cavity algorithm     : GePol (No added spheres)
                        Default sphere list used, NSphG=   21.
                        Lebedev-Laikov grids with approx.  5.0 points / Ang**2.
                        Smoothing algorithm: Karplus/York (Gamma=1.0000).
                        Polarization charges: spherical gaussians, with
                                              point-specific exponents (IZeta= 3).
                        Self-potential: point-specific (ISelfS= 7).
                        Self-field    : sphere-specific E.n sum rule (ISelfD= 2).
 Solvent              : Water, Eps=  78.355300 Eps(inf)=   1.777849
 ------------------------------------------------------------------------------
 ------------------------------------------------------------------------------
 Atomic radii for non-electrostatic terms: SMD-CDS.
 ------------------------------------------------------------------------------
 Nuclear repulsion after PCM non-electrostatic terms =      734.7691457650 Hartrees.
 One-electron integrals computed using PRISM.
 NBasis=   259 RedAO= T  NBF=   259
 NBsUse=   259 1.00D-06 NBFU=   259
 Harris functional with IExCor=  402 diagonalized for initial guess.
 ExpMin= 4.38D-02 ExpMax= 5.48D+03 ExpMxC= 8.25D+02 IAcc=2 IRadAn=         4 AccDes= 0.00D+00
 HarFok:  IExCor=  402 AccDes= 0.00D+00 IRadAn=         4 IDoV= 1
 ScaDFX=  1.000000  1.000000  1.000000  1.000000
 FoFCou: FMM=F IPFlag=           0 FMFlag=      100000 FMFlg1=           0
         NFxFlg=           0 DoJE=T BraDBF=F KetDBF=T FulRan=T
         Omega=  0.000000  0.000000  1.000000  0.000000  0.000000 ICntrl=     500 IOpCl=  0
         NMat0=    1 NMatS0=    1 NMatT0=    0 NMatD0=    1 NMtDS0=    0 NMtDT0=    0
         I1Cent=           4 NGrid=           0.
 Petite list used in FoFCou.
 Initial guess orbital symmetries:
       Occupied  (A) (A) (A) (A) (A) (A) (A) (A) (A) (A) (A) (A)
                 (A) (A) (A) (A) (A) (A) (A) (A) (A) (A) (A) (A)
                 (A) (A) (A) (A) (A) (A) (A) (A) (A) (A) (A) (A)
                 (A) (A) (A) (A) (A) (A) (A)
       Virtual   (A) (A) (A) (A) (A) (A) (A) (A) (A) (A) (A) (A)
                 (A) (A) (A) (A) (A) (A) (A) (A) (A) (A) (A) (A)
                 (A) (A) (A) (A) (A) (A) (A) (A) (A) (A) (A) (A)
                 (A) (A) (A) (A) (A) (A) (A) (A) (A) (A) (A) (A)
                 (A) (A) (A) (A) (A) (A) (A) (A) (A) (A) (A) (A)
                 (A) (A) (A) (A) (A) (A) (A) (A) (A) (A) (A) (A)
                 (A) (A) (A) (A) (A) (A) (A) (A) (A) (A) (A) (A)
                 (A) (A) (A) (A) (A) (A) (A) (A) (A) (A) (A) (A)
                 (A) (A) (A) (A) (A) (A) (A) (A) (A) (A) (A) (A)
                 (A) (A) (A) (A) (A) (A) (A) (A) (A) (A) (A) (A)
                 (A) (A) (A) (A) (A) (A) (A) (A) (A) (A) (A) (A)
                 (A) (A) (A) (A) (A) (A) (A) (A) (A) (A) (A) (A)
                 (A) (A) (A) (A) (A) (A) (A) (A) (A) (A) (A) (A)
                 (A) (A) (A) (A) (A) (A) (A) (A) (A) (A) (A) (A)
                 (A) (A) (A) (A) (A) (A) (A) (A) (A) (A) (A) (A)
                 (A) (A) (A) (A) (A) (A) (A) (A) (A) (A) (A) (A)
                 (A) (A) (A) (A) (A) (A) (A) (A) (A) (A) (A) (A)
                 (A) (A) (A) (A) (A) (A) (A) (A) (A) (A) (A) (A)
 The electronic state of the initial guess is 1-A.
 Requested convergence on RMS density matrix=1.00D-08 within 128 cycles.
 Requested convergence on MAX density matrix=1.00D-06.
 Requested convergence on             energy=1.00D-06.
 No special actions if energy rises.
 Error on total polarization charges =  0.05675
 SCF Done:  E(RB3LYP) =  -610.804988723     A.U. after   12 cycles
             Convg  =    0.6311D-08             -V/T =  2.0090
 SMD-CDS (non-electrostatic) energy       (kcal/mol) =       3.12
 (included in total energy above)

 **********************************************************************

            Population analysis using the SCF density.

 **********************************************************************

 Orbital symmetries:
       Occupied  (A) (A) (A) (A) (A) (A) (A) (A) (A) (A) (A) (A)
                 (A) (A) (A) (A) (A) (A) (A) (A) (A) (A) (A) (A)
                 (A) (A) (A) (A) (A) (A) (A) (A) (A) (A) (A) (A)
                 (A) (A) (A) (A) (A) (A) (A)
       Virtual   (A) (A) (A) (A) (A) (A) (A) (A) (A) (A) (A) (A)
                 (A) (A) (A) (A) (A) (A) (A) (A) (A) (A) (A) (A)
                 (A) (A) (A) (A) (A) (A) (A) (A) (A) (A) (A) (A)
                 (A) (A) (A) (A) (A) (A) (A) (A) (A) (A) (A) (A)
                 (A) (A) (A) (A) (A) (A) (A) (A) (A) (A) (A) (A)
                 (A) (A) (A) (A) (A) (A) (A) (A) (A) (A) (A) (A)
                 (A) (A) (A) (A) (A) (A) (A) (A) (A) (A) (A) (A)
                 (A) (A) (A) (A) (A) (A) (A) (A) (A) (A) (A) (A)
                 (A) (A) (A) (A) (A) (A) (A) (A) (A) (A) (A) (A)
                 (A) (A) (A) (A) (A) (A) (A) (A) (A) (A) (A) (A)
                 (A) (A) (A) (A) (A) (A) (A) (A) (A) (A) (A) (A)
                 (A) (A) (A) (A) (A) (A) (A) (A) (A) (A) (A) (A)
                 (A) (A) (A) (A) (A) (A) (A) (A) (A) (A) (A) (A)
                 (A) (A) (A) (A) (A) (A) (A) (A) (A) (A) (A) (A)
                 (A) (A) (A) (A) (A) (A) (A) (A) (A) (A) (A) (A)
                 (A) (A) (A) (A) (A) (A) (A) (A) (A) (A) (A) (A)
                 (A) (A) (A) (A) (A) (A) (A) (A) (A) (A) (A) (A)
                 (A) (A) (A) (A) (A) (A) (A) (A) (A) (A) (A) (A)
 The electronic state is 1-A.
 Alpha  occ. eigenvalues --  -19.18426 -19.18196 -19.17220 -19.16935 -19.16677
 Alpha  occ. eigenvalues --  -10.29569 -10.25087 -10.24748 -10.24670 -10.24635
 Alpha  occ. eigenvalues --  -10.24235  -1.11437  -1.04450  -1.03710  -1.03356
 Alpha  occ. eigenvalues --   -1.01123  -0.79697  -0.77415  -0.67820  -0.66346
 Alpha  occ. eigenvalues --   -0.62877  -0.59003  -0.55384  -0.52919  -0.51582
 Alpha  occ. eigenvalues --   -0.49805  -0.49508  -0.47588  -0.44488  -0.44419
 Alpha  occ. eigenvalues --   -0.43198  -0.42353  -0.39511  -0.38490  -0.38176
 Alpha  occ. eigenvalues --   -0.37199  -0.35702  -0.34514  -0.31428  -0.30858
 Alpha  occ. eigenvalues --   -0.29154  -0.27254  -0.26473
 Alpha virt. eigenvalues --    0.00788   0.01532   0.02323   0.02809   0.03580
 Alpha virt. eigenvalues --    0.04527   0.05545   0.05662   0.05804   0.08252
 Alpha virt. eigenvalues --    0.08349   0.09796   0.10121   0.10469   0.11435
 Alpha virt. eigenvalues --    0.12516   0.12837   0.13299   0.13773   0.14300
 Alpha virt. eigenvalues --    0.14837   0.15810   0.16337   0.16973   0.17188
 Alpha virt. eigenvalues --    0.18352   0.19016   0.19303   0.20641   0.20983
 Alpha virt. eigenvalues --    0.21729   0.22036   0.22752   0.23048   0.23573
 Alpha virt. eigenvalues --    0.24105   0.25402   0.25481   0.25891   0.26863
 Alpha virt. eigenvalues --    0.27165   0.27695   0.28878   0.29281   0.29880
 Alpha virt. eigenvalues --    0.30881   0.31132   0.31786   0.32906   0.33266
 Alpha virt. eigenvalues --    0.34182   0.34416   0.34586   0.35830   0.35942
 Alpha virt. eigenvalues --    0.36792   0.37284   0.38153   0.39080   0.39592
 Alpha virt. eigenvalues --    0.40965   0.42960   0.45198   0.47783   0.48420
 Alpha virt. eigenvalues --    0.51215   0.64027   0.64525   0.66539   0.68530
 Alpha virt. eigenvalues --    0.70231   0.70447   0.72672   0.74744   0.76153
 Alpha virt. eigenvalues --    0.78869   0.80835   0.81405   0.83400   0.85530
 Alpha virt. eigenvalues --    0.87360   0.91488   0.94316   0.97023   0.99404
 Alpha virt. eigenvalues --    1.00861   1.04093   1.04377   1.05817   1.06285
 Alpha virt. eigenvalues --    1.07513   1.09169   1.10429   1.11756   1.13272
 Alpha virt. eigenvalues --    1.17370   1.20298   1.23717   1.24274   1.24571
 Alpha virt. eigenvalues --    1.27923   1.28097   1.28577   1.29366   1.30979
 Alpha virt. eigenvalues --    1.32760   1.35608   1.37530   1.38343   1.40175
 Alpha virt. eigenvalues --    1.43160   1.44726   1.45777   1.48743   1.49360
 Alpha virt. eigenvalues --    1.52384   1.54482   1.56561   1.59359   1.60211
 Alpha virt. eigenvalues --    1.61467   1.63162   1.66900   1.67208   1.68376
 Alpha virt. eigenvalues --    1.71217   1.73176   1.73972   1.75060   1.77122
 Alpha virt. eigenvalues --    1.79578   1.82687   1.84195   1.86379   1.88057
 Alpha virt. eigenvalues --    1.89972   1.91870   1.95580   1.96238   1.97687
 Alpha virt. eigenvalues --    1.99806   2.02271   2.05379   2.06131   2.07713
 Alpha virt. eigenvalues --    2.09178   2.10477   2.12362   2.13415   2.16637
 Alpha virt. eigenvalues --    2.18807   2.19022   2.23197   2.27341   2.28284
 Alpha virt. eigenvalues --    2.33590   2.35689   2.36201   2.39931   2.43076
 Alpha virt. eigenvalues --    2.43596   2.46065   2.49157   2.49487   2.53864
 Alpha virt. eigenvalues --    2.55376   2.56748   2.59408   2.61563   2.64745
 Alpha virt. eigenvalues --    2.66173   2.66397   2.67028   2.69527   2.70415
 Alpha virt. eigenvalues --    2.72221   2.73993   2.75865   2.77132   2.79905
 Alpha virt. eigenvalues --    2.80382   2.84130   2.86018   2.88099   2.90124
 Alpha virt. eigenvalues --    2.90356   2.94747   2.96454   2.98466   2.99114
 Alpha virt. eigenvalues --    3.04841   3.08607   3.10140   3.18121   3.21368
 Alpha virt. eigenvalues --    3.33994   3.39914   3.45285   3.46145   3.47613
 Alpha virt. eigenvalues --    3.48324   3.51420   3.54765   3.55942   3.59884
 Alpha virt. eigenvalues --    4.27614   4.34238   4.42438   4.45854   4.52944
 Alpha virt. eigenvalues --    4.55862   4.62005   4.77578   4.84851   4.96067
 Alpha virt. eigenvalues --    4.97566
          Condensed to atoms (all electrons):
              1          2          3          4          5          6
     1  C    5.666215  -0.280865  -0.361661  -0.366695   0.297333   0.160205
     2  C   -0.280865   6.665942  -0.507981   0.433452  -0.069657  -0.559166
     3  C   -0.361661  -0.507981   6.404004   0.139900  -0.722781   0.339181
     4  C   -0.366695   0.433452   0.139900   6.274770  -0.342197  -0.358108
     5  C    0.297333  -0.069657  -0.722781  -0.342197   6.498102  -0.164302
     6  C    0.160205  -0.559166   0.339181  -0.358108  -0.164302   6.180750
     7  O    0.007909   0.066607   0.247085  -0.104649  -0.043176  -0.049083
     8  O    0.075421  -0.057123   0.274068   0.060524  -0.223806  -0.000345
     9  O    0.040560  -0.120227  -0.068353  -0.100471   0.095144   0.177625
    10  O    0.016910  -0.009558  -0.027392   0.196511  -0.003408  -0.092285
    11  O    0.013067  -0.039725  -0.156317  -0.114176   0.263829   0.057503
    12  H    0.470269  -0.137871   0.016651  -0.031188   0.006648   0.042554
    13  H    0.390567  -0.005011  -0.026825   0.001232   0.009684  -0.002330
    14  H    0.001327   0.323522   0.018268   0.004366  -0.008856  -0.003943
    15  H   -0.003464   0.045201   0.344412   0.030054  -0.031339  -0.025401
    16  H    0.003903  -0.014402   0.011790   0.381902  -0.036852   0.007990
    17  H    0.018755  -0.030809  -0.027008  -0.096628   0.400721   0.032718
    18  H    0.016074  -0.022170  -0.040989  -0.058610   0.061182   0.339064
    19  H   -0.004964   0.009413   0.002568  -0.020253  -0.009122   0.033387
    20  H   -0.004510  -0.008625   0.023704  -0.003526  -0.032565   0.004886
    21  H   -0.001369   0.000523   0.028923  -0.016565  -0.004596  -0.000017
              7          8          9         10         11         12
     1  C    0.007909   0.075421   0.040560   0.016910   0.013067   0.470269
     2  C    0.066607  -0.057123  -0.120227  -0.009558  -0.039725  -0.137871
     3  C    0.247085   0.274068  -0.068353  -0.027392  -0.156317   0.016651
     4  C   -0.104649   0.060524  -0.100471   0.196511  -0.114176  -0.031188
     5  C   -0.043176  -0.223806   0.095144  -0.003408   0.263829   0.006648
     6  C   -0.049083  -0.000345   0.177625  -0.092285   0.057503   0.042554
     7  O    8.395636  -0.065752   0.023673   0.001996   0.018374   0.010578
     8  O   -0.065752   8.518138   0.000611  -0.004529   0.013249  -0.051412
     9  O    0.023673   0.000611   8.376063   0.007299  -0.010015   0.000362
    10  O    0.001996  -0.004529   0.007299   8.289305   0.005718   0.002158
    11  O    0.018374   0.013249  -0.010015   0.005718   8.340055  -0.000011
    12  H    0.010578  -0.051412   0.000362   0.002158  -0.000011   0.522520
    13  H   -0.002825  -0.039411  -0.000245  -0.000256   0.000085  -0.036311
    14  H   -0.036543   0.007875   0.003196   0.000105   0.000593   0.001808
    15  H   -0.048756  -0.034685   0.000530  -0.000499   0.006814  -0.000223
    16  H   -0.002790   0.001664  -0.011056  -0.054443  -0.007603  -0.000033
    17  H    0.008403  -0.000401  -0.000443   0.005165  -0.033779   0.000021
    18  H    0.009169  -0.001772  -0.033662   0.001378  -0.000669   0.000931
    19  H   -0.001535   0.000350   0.240776  -0.000031  -0.000762  -0.000010
    20  H   -0.001395   0.026085  -0.000487   0.256195   0.000739  -0.001233
    21  H   -0.000820  -0.000591  -0.000905  -0.000068   0.249063   0.000000
             13         14         15         16         17         18
     1  C    0.390567   0.001327  -0.003464   0.003903   0.018755   0.016074
     2  C   -0.005011   0.323522   0.045201  -0.014402  -0.030809  -0.022170
     3  C   -0.026825   0.018268   0.344412   0.011790  -0.027008  -0.040989
     4  C    0.001232   0.004366   0.030054   0.381902  -0.096628  -0.058610
     5  C    0.009684  -0.008856  -0.031339  -0.036852   0.400721   0.061182
     6  C   -0.002330  -0.003943  -0.025401   0.007990   0.032718   0.339064
     7  O   -0.002825  -0.036543  -0.048756  -0.002790   0.008403   0.009169
     8  O   -0.039411   0.007875  -0.034685   0.001664  -0.000401  -0.001772
     9  O   -0.000245   0.003196   0.000530  -0.011056  -0.000443  -0.033662
    10  O   -0.000256   0.000105  -0.000499  -0.054443   0.005165   0.001378
    11  O    0.000085   0.000593   0.006814  -0.007603  -0.033779  -0.000669
    12  H   -0.036311   0.001808  -0.000223  -0.000033   0.000021   0.000931
    13  H    0.543325  -0.003328   0.000583   0.000004  -0.000013   0.000094
    14  H   -0.003328   0.518193  -0.000018  -0.000133   0.000022  -0.001663
    15  H    0.000583  -0.000018   0.549118  -0.000140  -0.003255   0.000026
    16  H    0.000004  -0.000133  -0.000140   0.547906  -0.002629  -0.003086
    17  H   -0.000013   0.000022  -0.003255  -0.002629   0.559407  -0.000174
    18  H    0.000094  -0.001663   0.000026  -0.003086  -0.000174   0.573290
    19  H    0.000005   0.000066   0.000000   0.004297  -0.000008  -0.006994
    20  H    0.000239  -0.000055  -0.000136   0.005324  -0.001588  -0.000167
    21  H    0.000000  -0.000001  -0.000243   0.002784  -0.007015  -0.000005
             19         20         21
     1  C   -0.004964  -0.004510  -0.001369
     2  C    0.009413  -0.008625   0.000523
     3  C    0.002568   0.023704   0.028923
     4  C   -0.020253  -0.003526  -0.016565
     5  C   -0.009122  -0.032565  -0.004596
     6  C    0.033387   0.004886  -0.000017
     7  O   -0.001535  -0.001395  -0.000820
     8  O    0.000350   0.026085  -0.000591
     9  O    0.240776  -0.000487  -0.000905
    10  O   -0.000031   0.256195  -0.000068
    11  O   -0.000762   0.000739   0.249063
    12  H   -0.000010  -0.001233   0.000000
    13  H    0.000005   0.000239   0.000000
    14  H    0.000066  -0.000055  -0.000001
    15  H    0.000000  -0.000136  -0.000243
    16  H    0.004297   0.005324   0.002784
    17  H   -0.000008  -0.001588  -0.007015
    18  H   -0.006994  -0.000167  -0.000005
    19  H    0.339558   0.000008   0.000040
    20  H    0.000008   0.319190  -0.000001
    21  H    0.000040  -0.000001   0.331281
 Mulliken atomic charges:
              1
     1  C   -0.154989
     2  C    0.318529
     3  C    0.088753
     4  C    0.090354
     5  C    0.060015
     6  C   -0.120882
     7  O   -0.432109
     8  O   -0.498155
     9  O   -0.619974
    10  O   -0.590268
    11  O   -0.606032
    12  H    0.183793
    13  H    0.170739
    14  H    0.175198
    15  H    0.171421
    16  H    0.165602
    17  H    0.178538
    18  H    0.168754
    19  H    0.413211
    20  H    0.417917
    21  H    0.419584
 Sum of Mulliken atomic charges =   0.00000
 Mulliken charges with hydrogens summed into heavy atoms:
              1
     1  C    0.199543
     2  C    0.493728
     3  C    0.260175
     4  C    0.255957
     5  C    0.238553
     6  C    0.047872
     7  O   -0.432109
     8  O   -0.498155
     9  O   -0.206763
    10  O   -0.172351
    11  O   -0.186448
 Sum of Mulliken charges with hydrogens summed into heavy atoms =   0.00000
 Electronic spatial extent (au):  <R**2>=           1351.4521
 Charge=              0.0000 electrons
 Dipole moment (field-independent basis, Debye):
    X=             -0.2575    Y=              0.8085    Z=              3.3031  Tot=              3.4104
 Quadrupole moment (field-independent basis, Debye-Ang):
   XX=            -53.3194   YY=            -58.8484   ZZ=            -79.8939
   XY=              4.4536   XZ=             -5.3658   YZ=              2.0534
 Traceless Quadrupole moment (field-independent basis, Debye-Ang):
   XX=             10.7012   YY=              5.1721   ZZ=            -15.8733
   XY=              4.4536   XZ=             -5.3658   YZ=              2.0534
 Octapole moment (field-independent basis, Debye-Ang**2):
  XXX=            -32.3472  YYY=             -2.8868  ZZZ=             -9.5679  XYY=             -9.6455
  XXY=              9.8189  XXZ=             11.9257  XZZ=             12.3373  YZZ=             -1.5537
  YYZ=              8.2176  XYZ=             -1.5725
 Hexadecapole moment (field-independent basis, Debye-Ang**3):
 XXXX=           -532.0498 YYYY=           -534.7228 ZZZZ=           -555.4585 XXXY=             25.6608
 XXXZ=            -15.4668 YYYX=             -3.7034 YYYZ=             12.6556 ZZZX=             17.1089
 ZZZY=             -3.8278 XXYY=           -164.4407 XXZZ=           -190.3879 YYZZ=           -170.8193
 XXYZ=              3.9818 YYXZ=            -24.0068 ZZXY=             -6.2778
 N-N= 7.347691457650D+02 E-N=-2.899933080755D+03  KE= 6.053371254734D+02

 Test job not archived.
 1\1\GINC-COMPUTE-8-7\SP\RB3LYP\6-31+G(d,p)\C6H10O5\ASAROTTI.IQUIR\15-A
 pr-2019\0\\# B3LYP/6-31+G** test scrf=(pcm,solvent=water,smd,dovacuum)
 \\comment\\0,1\C,0,2.031243,0.447012,0.149566\C,0,0.854843,1.062123,-0
 .60971\C,0,0.567634,-1.141305,-0.692392\C,0,-0.875171,0.048008,0.98388
 \C,0,-0.743217,-1.222018,0.100979\C,0,-0.373122,1.339092,0.267943\O,0,
 0.56296,-0.009793,-1.529496\O,0,1.650268,-0.946479,0.244527\O,0,-1.358
 929,1.89184,-0.598968\O,0,-0.190493,-0.143874,2.223696\O,0,-1.785651,-
 1.368331,-0.851326\H,0,2.180043,0.844785,1.155702\H,0,2.960132,0.53635
 4,-0.422668\H,0,1.116102,1.94473,-1.19571\H,0,0.748041,-2.030079,-1.30
 2089\H,0,-1.932147,0.19332,1.238538\H,0,-0.698826,-2.089891,0.77466\H,
 0,-0.093884,2.057052,1.052991\H,0,-2.112863,2.163123,-0.050955\H,0,0.6
 32426,-0.618128,2.006813\H,0,-2.597515,-1.585648,-0.366346\\Version=EM
 64L-G09RevC.01\State=1-A\HF=-610.8049887\RMSD=6.311e-09\Dipole=-0.1012
 9,0.3180867,1.2995562\Quadrupole=7.9560487,3.8453583,-11.8014069,3.311
 1039,-3.9893057,1.5266308\PG=C01 [X(C6H10O5)]\\@


 YOU ARE IN A MAZE OF TWISTY LITTLE PASSAGES.
 Job cpu time:  0 days  0 hours 10 minutes  1.8 seconds.
 File lengths (MBytes):  RWF=     56 Int=      0 D2E=      0 Chk=      4 Scr=      1
 Normal termination of Gaussian 09 at Mon Apr 15 17:50:21 2019.
