 Entering Gaussian System, Link 0=g09
 Input=/home/asarotti.iquir/SCF3/01_RSR_Levo27_OPTB_energy_b3lyp_smd.gjc
 Output=/home/asarotti.iquir/SCF3/01_RSR_Levo27_OPTB_energy_b3lyp_smd.log
 Initial command:
 /share/apps/Gaussian09/EM64T.SSE4.2-enabled/g09/l1.exe /tmp/Gau-5706.inp -scrdir=/tmp/
 Entering Link 1 = /share/apps/Gaussian09/EM64T.SSE4.2-enabled/g09/l1.exe PID=      5707.
  
 Copyright (c) 1988,1990,1992,1993,1995,1998,2003,2009,2011,
            Gaussian, Inc.  All Rights Reserved.
  
 This is part of the Gaussian(R) 09 program.  It is based on
 the Gaussian(R) 03 system (copyright 2003, Gaussian, Inc.),
 the Gaussian(R) 98 system (copyright 1998, Gaussian, Inc.),
 the Gaussian(R) 94 system (copyright 1995, Gaussian, Inc.),
 the Gaussian 92(TM) system (copyright 1992, Gaussian, Inc.),
 the Gaussian 90(TM) system (copyright 1990, Gaussian, Inc.),
 the Gaussian 88(TM) system (copyright 1988, Gaussian, Inc.),
 the Gaussian 86(TM) system (copyright 1986, Carnegie Mellon
 University), and the Gaussian 82(TM) system (copyright 1983,
 Carnegie Mellon University). Gaussian is a federally registered
 trademark of Gaussian, Inc.
  
 This software contains proprietary and confidential information,
 including trade secrets, belonging to Gaussian, Inc.
  
 This software is provided under written license and may be
 used, copied, transmitted, or stored only in accord with that
 written license.
  
 The following legend is applicable only to US Government
 contracts under FAR:
  
                    RESTRICTED RIGHTS LEGEND
  
 Use, reproduction and disclosure by the US Government is
 subject to restrictions as set forth in subparagraphs (a)
 and (c) of the Commercial Computer Software - Restricted
 Rights clause in FAR 52.227-19.
  
 Gaussian, Inc.
 340 Quinnipiac St., Bldg. 40, Wallingford CT 06492
  
  
 ---------------------------------------------------------------
 Warning -- This program may not be used in any manner that
 competes with the business of Gaussian, Inc. or will provide
 assistance to any competitor of Gaussian, Inc.  The licensee
 of this program is prohibited from giving any competitor of
 Gaussian, Inc. access to this program.  By using this program,
 the user acknowledges that Gaussian, Inc. is engaged in the
 business of creating and licensing software in the field of
 computational chemistry and represents and warrants to the
 licensee that it is not a competitor of Gaussian, Inc. and that
 it will not use this program in any manner prohibited above.
 ---------------------------------------------------------------
  

 Cite this work as:
 Gaussian 09, Revision C.01,
 M. J. Frisch, G. W. Trucks, H. B. Schlegel, G. E. Scuseria, 
 M. A. Robb, J. R. Cheeseman, G. Scalmani, V. Barone, B. Mennucci, 
 G. A. Petersson, H. Nakatsuji, M. Caricato, X. Li, H. P. Hratchian, 
 A. F. Izmaylov, J. Bloino, G. Zheng, J. L. Sonnenberg, M. Hada, 
 M. Ehara, K. Toyota, R. Fukuda, J. Hasegawa, M. Ishida, T. Nakajima, 
 Y. Honda, O. Kitao, H. Nakai, T. Vreven, J. A. Montgomery, Jr., 
 J. E. Peralta, F. Ogliaro, M. Bearpark, J. J. Heyd, E. Brothers, 
 K. N. Kudin, V. N. Staroverov, T. Keith, R. Kobayashi, J. Normand, 
 K. Raghavachari, A. Rendell, J. C. Burant, S. S. Iyengar, J. Tomasi, 
 M. Cossi, N. Rega, J. M. Millam, M. Klene, J. E. Knox, J. B. Cross, 
 V. Bakken, C. Adamo, J. Jaramillo, R. Gomperts, R. E. Stratmann, 
 O. Yazyev, A. J. Austin, R. Cammi, C. Pomelli, J. W. Ochterski, 
 R. L. Martin, K. Morokuma, V. G. Zakrzewski, G. A. Voth, 
 P. Salvador, J. J. Dannenberg, S. Dapprich, A. D. Daniels, 
 O. Farkas, J. B. Foresman, J. V. Ortiz, J. Cioslowski, 
 and D. J. Fox, Gaussian, Inc., Wallingford CT, 2010.
 
 ******************************************
 Gaussian 09:  EM64L-G09RevC.01 23-Sep-2011
                15-Apr-2019 
 ******************************************
 %nprocshared=4
 Will use up to    4 processors via shared memory.
 -----------------------------------------------------------
 # B3LYP/6-31+G** test scrf=(pcm,solvent=water,smd,dovacuum)
 -----------------------------------------------------------
 1/38=1/1;
 2/12=2,17=6,18=5,40=1/2;
 3/5=1,6=6,7=111,11=2,16=1,25=1,30=1,70=32101,72=1,74=-5/1,2,3;
 4//1;
 5/5=2,38=5,53=1/2;
 6/7=2,8=2,9=2,10=2,28=1/1;
 99/5=1,9=1/99;
 -------
 comment
 -------
 Charge =  0 Multiplicity = 1
 Symbolic Z-Matrix:
 6                     1.94336   0.57644   0.40833 
 6                     0.86163   1.07201  -0.56717 
 6                     0.75773  -1.14039  -0.55444 
 6                    -1.02145   0.06868   0.82851 
 6                    -0.60622  -1.26524   0.14206 
 6                    -0.49351   1.33265   0.09761 
 8                     0.74665  -0.0538   -1.45614 
 8                     1.77551  -0.85509   0.39791 
 8                    -1.37107   1.76047  -0.93773 
 8                    -0.52674   0.15553   2.16354 
 8                    -1.52663  -1.65762  -0.86911 
 1                     1.81476   0.95223   1.42532 
 1                     2.94713   0.82158   0.04534 
 1                     1.16491   1.9379   -1.15837 
 1                     1.00418  -2.05165  -1.1061 
 1                    -2.1227    0.11125   0.82727 
 1                    -0.52332  -2.04329   0.91686 
 1                    -0.37227   2.11762   0.85812 
 1                    -2.20255   2.03901  -0.52147 
 1                    -0.77725  -0.65757   2.63142 
 1                    -2.36381  -1.88781  -0.43554 
 
                          Input orientation:                          
 ---------------------------------------------------------------------
 Center     Atomic      Atomic             Coordinates (Angstroms)
 Number     Number       Type             X           Y           Z
 ---------------------------------------------------------------------
      1          6           0        1.943357    0.576437    0.408333
      2          6           0        0.861629    1.072005   -0.567167
      3          6           0        0.757726   -1.140393   -0.554442
      4          6           0       -1.021448    0.068683    0.828510
      5          6           0       -0.606221   -1.265243    0.142057
      6          6           0       -0.493511    1.332653    0.097610
      7          8           0        0.746647   -0.053804   -1.456140
      8          8           0        1.775505   -0.855090    0.397912
      9          8           0       -1.371073    1.760468   -0.937732
     10          8           0       -0.526735    0.155528    2.163541
     11          8           0       -1.526629   -1.657618   -0.869114
     12          1           0        1.814758    0.952227    1.425322
     13          1           0        2.947126    0.821580    0.045341
     14          1           0        1.164914    1.937904   -1.158366
     15          1           0        1.004176   -2.051651   -1.106101
     16          1           0       -2.122695    0.111245    0.827268
     17          1           0       -0.523324   -2.043292    0.916861
     18          1           0       -0.372269    2.117624    0.858120
     19          1           0       -2.202552    2.039009   -0.521467
     20          1           0       -0.777246   -0.657568    2.631415
     21          1           0       -2.363809   -1.887811   -0.435537
 ---------------------------------------------------------------------
                    Distance matrix (angstroms):
                    1          2          3          4          5
     1  C    0.000000
     2  C    1.538611   0.000000
     3  C    2.297860   2.214873   0.000000
     4  C    3.037175   2.549617   2.557319   0.000000
     5  C    3.156428   2.849616   1.536571   1.556596   0.000000
     6  C    2.570357   1.531754   2.847231   1.552595   2.600720
     7  O    2.303384   1.439076   1.412040   2.891503   2.419105
     8  O    1.441372   2.340992   1.422761   2.976864   2.430289
     9  O    3.768191   2.365641   3.618521   2.470624   3.302404
    10  O    3.059293   3.197538   3.273635   1.426391   2.472106
    11  O    4.320148   3.639477   2.363222   2.473308   1.422524
    12  H    1.091798   2.211971   3.068524   3.030000   3.524923
    13  H    1.095176   2.187962   3.000425   4.114582   4.121948
    14  H    2.216780   1.091457   3.163296   3.495975   3.884349
    15  H    3.175282   3.173011   1.093369   3.513074   2.183968
    16  H    4.113963   3.431282   3.431114   1.102070   2.159613
    17  H    3.634019   3.718267   2.149662   2.171721   1.101160
    18  H    2.817745   2.155752   3.726512   2.149528   3.465728
    19  H    4.493574   3.213470   4.344299   2.664513   3.729158
    20  H    3.723781   3.988516   3.569166   1.958964   2.568155
    21  H    5.033519   4.379645   3.211970   2.688423   1.952004
                    6          7          8          9         10
     6  C    0.000000
     7  O    2.423715   0.000000
     8  O    3.166202   2.266741   0.000000
     9  O    1.423051   2.836383   4.304189   0.000000
    10  O    2.377982   3.842839   3.072312   3.592580   0.000000
    11  O    3.308113   2.843344   3.626775   3.422312   3.672095
    12  H    2.689916   3.233540   2.079304   4.048061   2.581140
    13  H    3.478780   2.804077   2.075626   4.527117   4.122876
    14  H    2.166605   2.056822   3.255094   2.551743   4.132022
    15  H    3.891722   2.044564   2.070933   4.494709   4.231535
    16  H    2.162979   3.670738   4.039073   2.529841   2.081988
    17  H    3.474056   3.346942   2.639270   4.315876   2.527653
    18  H    1.099661   3.364948   3.696181   2.085726   2.361738
    19  H    1.950132   3.735138   5.004598   0.970680   3.683087
    20  H    3.234448   4.403963   3.397659   4.351820   0.970972
    21  H    3.762134   3.752352   4.346846   3.814140   3.782232
                   11         12         13         14         15
    11  O    0.000000
    12  H    4.820850   0.000000
    13  H    5.195877   1.789881   0.000000
    14  H    4.500650   2.840651   2.423091   0.000000
    15  H    2.572236   4.011038   3.654631   3.993134   0.000000
    16  H    2.522277   4.070437   5.178713   4.252975   4.265367
    17  H    2.084484   3.833835   4.583782   4.796523   2.534897
    18  H    4.309099   2.542234   3.654959   2.541938   4.809950
    19  H    3.773961   4.594547   5.321897   3.428657   5.230526
    20  H    3.716904   3.280943   4.769340   4.987073   4.368748
    21  H    0.970489   5.384147   5.981478   5.254566   3.437997
                   16         17         18         19         20
    16  H    0.000000
    17  H    2.684780   0.000000
    18  H    2.662799   4.164071   0.000000
    19  H    2.354089   4.642604   2.293333   0.000000
    20  H    2.378288   2.219100   3.318173   4.386763   0.000000
    21  H    2.376770   2.289223   4.656532   3.931069   3.665634
                   21
    21  H    0.000000
 Stoichiometry    C6H10O5
 Framework group  C1[X(C6H10O5)]
 Deg. of freedom    57
 Full point group                 C1      NOp   1
 Largest Abelian subgroup         C1      NOp   1
 Largest concise Abelian subgroup C1      NOp   1
                         Standard orientation:                         
 ---------------------------------------------------------------------
 Center     Atomic      Atomic             Coordinates (Angstroms)
 Number     Number       Type             X           Y           Z
 ---------------------------------------------------------------------
      1          6           0        1.943357    0.576437    0.408333
      2          6           0        0.861629    1.072005   -0.567167
      3          6           0        0.757726   -1.140393   -0.554442
      4          6           0       -1.021448    0.068683    0.828510
      5          6           0       -0.606221   -1.265243    0.142057
      6          6           0       -0.493511    1.332653    0.097610
      7          8           0        0.746647   -0.053804   -1.456140
      8          8           0        1.775505   -0.855090    0.397912
      9          8           0       -1.371073    1.760468   -0.937732
     10          8           0       -0.526735    0.155528    2.163541
     11          8           0       -1.526629   -1.657618   -0.869114
     12          1           0        1.814758    0.952227    1.425322
     13          1           0        2.947126    0.821581    0.045341
     14          1           0        1.164914    1.937904   -1.158366
     15          1           0        1.004176   -2.051651   -1.106101
     16          1           0       -2.122695    0.111245    0.827268
     17          1           0       -0.523324   -2.043292    0.916861
     18          1           0       -0.372269    2.117624    0.858120
     19          1           0       -2.202552    2.039009   -0.521467
     20          1           0       -0.777246   -0.657568    2.631415
     21          1           0       -2.363809   -1.887811   -0.435537
 ---------------------------------------------------------------------
 Rotational constants (GHZ):      1.3462900      1.2233035      1.1258689
 Standard basis: 6-31+G(d,p) (6D, 7F)
 There are   259 symmetry adapted basis functions of A   symmetry.
 Integral buffers will be    131072 words long.
 Raffenetti 2 integral format.
 Two-electron integral symmetry is turned on.
   259 basis functions,   422 primitive gaussians,   259 cartesian basis functions
    43 alpha electrons       43 beta electrons
       nuclear repulsion energy       730.8752642905 Hartrees.
 NAtoms=   21 NActive=   21 NUniq=   21 SFac= 1.00D+00 NAtFMM=   60 NAOKFM=F Big=F
 ------------------------------------------------------------------------------
 Polarizable Continuum Model (PCM)
 =================================
 Model                : C-PCM.
 Atomic radii         : SMD-Coulomb.
 Polarization charges : Total charges.
 Charge compensation  : None.
 Solution method      : Matrix inversion.
 Cavity type          : VdW (van der Waals Surface) (Alpha=1.000).
 Cavity algorithm     : GePol (No added spheres)
                        Default sphere list used, NSphG=   21.
                        Lebedev-Laikov grids with approx.  5.0 points / Ang**2.
                        Smoothing algorithm: Karplus/York (Gamma=1.0000).
                        Polarization charges: spherical gaussians, with
                                              point-specific exponents (IZeta= 3).
                        Self-potential: point-specific (ISelfS= 7).
                        Self-field    : sphere-specific E.n sum rule (ISelfD= 2).
 Solvent              : Water, Eps=  78.355300 Eps(inf)=   1.777849
 ------------------------------------------------------------------------------
 ------------------------------------------------------------------------------
 Atomic radii for non-electrostatic terms: SMD-CDS.
 ------------------------------------------------------------------------------
 Nuclear repulsion after PCM non-electrostatic terms =      730.8806994473 Hartrees.
 One-electron integrals computed using PRISM.
 NBasis=   259 RedAO= T  NBF=   259
 NBsUse=   259 1.00D-06 NBFU=   259
 Harris functional with IExCor=  402 diagonalized for initial guess.
 ExpMin= 4.38D-02 ExpMax= 5.48D+03 ExpMxC= 8.25D+02 IAcc=2 IRadAn=         4 AccDes= 0.00D+00
 HarFok:  IExCor=  402 AccDes= 0.00D+00 IRadAn=         4 IDoV= 1
 ScaDFX=  1.000000  1.000000  1.000000  1.000000
 FoFCou: FMM=F IPFlag=           0 FMFlag=      100000 FMFlg1=           0
         NFxFlg=           0 DoJE=T BraDBF=F KetDBF=T FulRan=T
         Omega=  0.000000  0.000000  1.000000  0.000000  0.000000 ICntrl=     500 IOpCl=  0
         NMat0=    1 NMatS0=    1 NMatT0=    0 NMatD0=    1 NMtDS0=    0 NMtDT0=    0
         I1Cent=           4 NGrid=           0.
 Petite list used in FoFCou.
 Initial guess orbital symmetries:
       Occupied  (A) (A) (A) (A) (A) (A) (A) (A) (A) (A) (A) (A)
                 (A) (A) (A) (A) (A) (A) (A) (A) (A) (A) (A) (A)
                 (A) (A) (A) (A) (A) (A) (A) (A) (A) (A) (A) (A)
                 (A) (A) (A) (A) (A) (A) (A)
       Virtual   (A) (A) (A) (A) (A) (A) (A) (A) (A) (A) (A) (A)
                 (A) (A) (A) (A) (A) (A) (A) (A) (A) (A) (A) (A)
                 (A) (A) (A) (A) (A) (A) (A) (A) (A) (A) (A) (A)
                 (A) (A) (A) (A) (A) (A) (A) (A) (A) (A) (A) (A)
                 (A) (A) (A) (A) (A) (A) (A) (A) (A) (A) (A) (A)
                 (A) (A) (A) (A) (A) (A) (A) (A) (A) (A) (A) (A)
                 (A) (A) (A) (A) (A) (A) (A) (A) (A) (A) (A) (A)
                 (A) (A) (A) (A) (A) (A) (A) (A) (A) (A) (A) (A)
                 (A) (A) (A) (A) (A) (A) (A) (A) (A) (A) (A) (A)
                 (A) (A) (A) (A) (A) (A) (A) (A) (A) (A) (A) (A)
                 (A) (A) (A) (A) (A) (A) (A) (A) (A) (A) (A) (A)
                 (A) (A) (A) (A) (A) (A) (A) (A) (A) (A) (A) (A)
                 (A) (A) (A) (A) (A) (A) (A) (A) (A) (A) (A) (A)
                 (A) (A) (A) (A) (A) (A) (A) (A) (A) (A) (A) (A)
                 (A) (A) (A) (A) (A) (A) (A) (A) (A) (A) (A) (A)
                 (A) (A) (A) (A) (A) (A) (A) (A) (A) (A) (A) (A)
                 (A) (A) (A) (A) (A) (A) (A) (A) (A) (A) (A) (A)
                 (A) (A) (A) (A) (A) (A) (A) (A) (A) (A) (A) (A)
 The electronic state of the initial guess is 1-A.
 Requested convergence on RMS density matrix=1.00D-08 within 128 cycles.
 Requested convergence on MAX density matrix=1.00D-06.
 Requested convergence on             energy=1.00D-06.
 No special actions if energy rises.
 Error on total polarization charges =  0.05623
 SCF Done:  E(RB3LYP) =  -610.805236557     A.U. after   12 cycles
             Convg  =    0.5444D-08             -V/T =  2.0090
 SMD-CDS (non-electrostatic) energy       (kcal/mol) =       3.41
 (included in total energy above)

 **********************************************************************

            Population analysis using the SCF density.

 **********************************************************************

 Orbital symmetries:
       Occupied  (A) (A) (A) (A) (A) (A) (A) (A) (A) (A) (A) (A)
                 (A) (A) (A) (A) (A) (A) (A) (A) (A) (A) (A) (A)
                 (A) (A) (A) (A) (A) (A) (A) (A) (A) (A) (A) (A)
                 (A) (A) (A) (A) (A) (A) (A)
       Virtual   (A) (A) (A) (A) (A) (A) (A) (A) (A) (A) (A) (A)
                 (A) (A) (A) (A) (A) (A) (A) (A) (A) (A) (A) (A)
                 (A) (A) (A) (A) (A) (A) (A) (A) (A) (A) (A) (A)
                 (A) (A) (A) (A) (A) (A) (A) (A) (A) (A) (A) (A)
                 (A) (A) (A) (A) (A) (A) (A) (A) (A) (A) (A) (A)
                 (A) (A) (A) (A) (A) (A) (A) (A) (A) (A) (A) (A)
                 (A) (A) (A) (A) (A) (A) (A) (A) (A) (A) (A) (A)
                 (A) (A) (A) (A) (A) (A) (A) (A) (A) (A) (A) (A)
                 (A) (A) (A) (A) (A) (A) (A) (A) (A) (A) (A) (A)
                 (A) (A) (A) (A) (A) (A) (A) (A) (A) (A) (A) (A)
                 (A) (A) (A) (A) (A) (A) (A) (A) (A) (A) (A) (A)
                 (A) (A) (A) (A) (A) (A) (A) (A) (A) (A) (A) (A)
                 (A) (A) (A) (A) (A) (A) (A) (A) (A) (A) (A) (A)
                 (A) (A) (A) (A) (A) (A) (A) (A) (A) (A) (A) (A)
                 (A) (A) (A) (A) (A) (A) (A) (A) (A) (A) (A) (A)
                 (A) (A) (A) (A) (A) (A) (A) (A) (A) (A) (A) (A)
                 (A) (A) (A) (A) (A) (A) (A) (A) (A) (A) (A) (A)
                 (A) (A) (A) (A) (A) (A) (A) (A) (A) (A) (A) (A)
 The electronic state is 1-A.
 Alpha  occ. eigenvalues --  -19.18156 -19.17500 -19.17110 -19.16926 -19.16904
 Alpha  occ. eigenvalues --  -10.29262 -10.24903 -10.24748 -10.24713 -10.24620
 Alpha  occ. eigenvalues --  -10.23840  -1.11191  -1.04555  -1.03711  -1.03189
 Alpha  occ. eigenvalues --   -1.01035  -0.79450  -0.77378  -0.67875  -0.66188
 Alpha  occ. eigenvalues --   -0.62658  -0.58339  -0.54495  -0.53642  -0.51901
 Alpha  occ. eigenvalues --   -0.50367  -0.48581  -0.47478  -0.44364  -0.44088
 Alpha  occ. eigenvalues --   -0.43726  -0.41071  -0.40951  -0.38784  -0.38123
 Alpha  occ. eigenvalues --   -0.35659  -0.35042  -0.34508  -0.31502  -0.30195
 Alpha  occ. eigenvalues --   -0.28568  -0.27695  -0.26361
 Alpha virt. eigenvalues --    0.00706   0.01734   0.02135   0.02583   0.03453
 Alpha virt. eigenvalues --    0.04423   0.05459   0.05719   0.06148   0.08155
 Alpha virt. eigenvalues --    0.08346   0.09528   0.10006   0.10541   0.11674
 Alpha virt. eigenvalues --    0.12341   0.12980   0.13387   0.13582   0.14404
 Alpha virt. eigenvalues --    0.15175   0.15908   0.16548   0.16800   0.17218
 Alpha virt. eigenvalues --    0.18261   0.19163   0.19318   0.20914   0.21140
 Alpha virt. eigenvalues --    0.21994   0.22441   0.22749   0.23403   0.23898
 Alpha virt. eigenvalues --    0.24397   0.24816   0.25748   0.26610   0.26771
 Alpha virt. eigenvalues --    0.27493   0.28198   0.29232   0.29528   0.30151
 Alpha virt. eigenvalues --    0.30302   0.31131   0.31732   0.32321   0.32792
 Alpha virt. eigenvalues --    0.34304   0.34546   0.35659   0.35922   0.36098
 Alpha virt. eigenvalues --    0.36763   0.37267   0.38347   0.39157   0.39853
 Alpha virt. eigenvalues --    0.41064   0.42232   0.44452   0.46758   0.47599
 Alpha virt. eigenvalues --    0.49328   0.63785   0.65332   0.66585   0.68644
 Alpha virt. eigenvalues --    0.70564   0.71050   0.73451   0.74980   0.76734
 Alpha virt. eigenvalues --    0.79030   0.80719   0.81919   0.83556   0.84822
 Alpha virt. eigenvalues --    0.87655   0.91220   0.94690   0.97093   0.99167
 Alpha virt. eigenvalues --    0.99958   1.03371   1.03963   1.04873   1.05660
 Alpha virt. eigenvalues --    1.07428   1.07816   1.10135   1.11747   1.11898
 Alpha virt. eigenvalues --    1.16522   1.20942   1.22119   1.23864   1.25388
 Alpha virt. eigenvalues --    1.27342   1.27660   1.29227   1.30663   1.30999
 Alpha virt. eigenvalues --    1.33704   1.35535   1.37032   1.38000   1.40522
 Alpha virt. eigenvalues --    1.42442   1.45785   1.46737   1.47398   1.50175
 Alpha virt. eigenvalues --    1.52623   1.54226   1.56961   1.57849   1.61108
 Alpha virt. eigenvalues --    1.61872   1.63777   1.64766   1.67496   1.69623
 Alpha virt. eigenvalues --    1.70778   1.72915   1.73905   1.75314   1.79823
 Alpha virt. eigenvalues --    1.79854   1.82958   1.84296   1.86591   1.88228
 Alpha virt. eigenvalues --    1.90629   1.91837   1.94104   1.97581   1.99711
 Alpha virt. eigenvalues --    2.01170   2.02184   2.02793   2.06021   2.08953
 Alpha virt. eigenvalues --    2.09388   2.10070   2.13773   2.14864   2.15707
 Alpha virt. eigenvalues --    2.18681   2.19222   2.22887   2.26832   2.29036
 Alpha virt. eigenvalues --    2.31916   2.35605   2.38308   2.39781   2.42158
 Alpha virt. eigenvalues --    2.44247   2.47280   2.48369   2.49949   2.51701
 Alpha virt. eigenvalues --    2.52931   2.58373   2.59554   2.62203   2.65183
 Alpha virt. eigenvalues --    2.66459   2.66814   2.68899   2.69286   2.71148
 Alpha virt. eigenvalues --    2.72790   2.73847   2.74771   2.76538   2.78750
 Alpha virt. eigenvalues --    2.81514   2.82946   2.86521   2.86828   2.88358
 Alpha virt. eigenvalues --    2.89866   2.95276   2.97500   2.98844   2.99597
 Alpha virt. eigenvalues --    3.02869   3.09237   3.11708   3.18790   3.21251
 Alpha virt. eigenvalues --    3.35010   3.39615   3.42201   3.45905   3.47210
 Alpha virt. eigenvalues --    3.47563   3.52203   3.54751   3.55570   3.58200
 Alpha virt. eigenvalues --    4.29393   4.34259   4.41021   4.43604   4.51963
 Alpha virt. eigenvalues --    4.54964   4.63079   4.78506   4.87285   4.95544
 Alpha virt. eigenvalues --    4.98928
          Condensed to atoms (all electrons):
              1          2          3          4          5          6
     1  C    5.605605  -0.255948  -0.506866  -0.362130   0.364050   0.173928
     2  C   -0.255948   6.686564  -0.283121   0.411896  -0.223585  -0.566927
     3  C   -0.506866  -0.283121   6.498570   0.350905  -0.897211   0.157856
     4  C   -0.362130   0.411896   0.350905   6.329966  -0.591600  -0.323081
     5  C    0.364050  -0.223585  -0.897211  -0.591600   6.753443  -0.023490
     6  C    0.173928  -0.566927   0.157856  -0.323081  -0.023490   6.182930
     7  O    0.002160   0.060461   0.234611  -0.107961  -0.050994  -0.041451
     8  O    0.149464  -0.127160   0.355496   0.025660  -0.192156  -0.004557
     9  O    0.041664  -0.139368  -0.056037  -0.100115   0.089361   0.194370
    10  O    0.018052  -0.043873  -0.048145   0.082756   0.067108  -0.033059
    11  O    0.018309  -0.030136  -0.164396  -0.112548   0.271118   0.035981
    12  H    0.479661  -0.171902   0.010187  -0.040757   0.013415   0.070377
    13  H    0.405611  -0.007901  -0.021704  -0.001669   0.010510  -0.008637
    14  H   -0.003453   0.348842   0.016782   0.014019  -0.011229  -0.029252
    15  H    0.006811   0.040370   0.358905   0.022492  -0.035485  -0.028056
    16  H    0.001774  -0.026529   0.002404   0.320769   0.017899   0.020185
    17  H    0.019846  -0.026510  -0.033432  -0.049243   0.382158   0.017380
    18  H    0.017695  -0.026950  -0.037150  -0.062292   0.059224   0.344417
    19  H   -0.004797   0.009937   0.002754  -0.022981  -0.007529   0.033681
    20  H   -0.000271  -0.005693   0.013426   0.049758  -0.055983   0.007060
    21  H   -0.001731   0.000776   0.028826  -0.015149  -0.006471   0.001250
              7          8          9         10         11         12
     1  C    0.002160   0.149464   0.041664   0.018052   0.018309   0.479661
     2  C    0.060461  -0.127160  -0.139368  -0.043873  -0.030136  -0.171902
     3  C    0.234611   0.355496  -0.056037  -0.048145  -0.164396   0.010187
     4  C   -0.107961   0.025660  -0.100115   0.082756  -0.112548  -0.040757
     5  C   -0.050994  -0.192156   0.089361   0.067108   0.271118   0.013415
     6  C   -0.041451  -0.004557   0.194370  -0.033059   0.035981   0.070377
     7  O    8.388163  -0.049064   0.022405   0.006587   0.021040   0.010469
     8  O   -0.049064   8.396532   0.000235   0.007305   0.010339  -0.044664
     9  O    0.022405   0.000235   8.370840   0.006099  -0.003955   0.000355
    10  O    0.006587   0.007305   0.006099   8.357731   0.002929  -0.001575
    11  O    0.021040   0.010339  -0.003955   0.002929   8.350262  -0.000053
    12  H    0.010469  -0.044664   0.000355  -0.001575  -0.000053   0.536426
    13  H   -0.000642  -0.050087  -0.000179   0.000663   0.000084  -0.039835
    14  H   -0.037661   0.007336   0.004242  -0.000222   0.000479   0.002372
    15  H   -0.047358  -0.042231   0.000608  -0.000348   0.007011  -0.000257
    16  H   -0.002492   0.000433  -0.013411  -0.040056  -0.008533  -0.000029
    17  H    0.008499  -0.001378  -0.000181  -0.012342  -0.036101   0.000040
    18  H    0.008515   0.000120  -0.033515   0.001648  -0.000523   0.000199
    19  H   -0.001224   0.000171   0.240741   0.000121  -0.000567  -0.000011
    20  H    0.000091  -0.002941  -0.000365   0.239951   0.000426   0.000175
    21  H   -0.001219  -0.000594  -0.000755   0.000150   0.246668   0.000000
             13         14         15         16         17         18
     1  C    0.405611  -0.003453   0.006811   0.001774   0.019846   0.017695
     2  C   -0.007901   0.348842   0.040370  -0.026529  -0.026510  -0.026950
     3  C   -0.021704   0.016782   0.358905   0.002404  -0.033432  -0.037150
     4  C   -0.001669   0.014019   0.022492   0.320769  -0.049243  -0.062292
     5  C    0.010510  -0.011229  -0.035485   0.017899   0.382158   0.059224
     6  C   -0.008637  -0.029252  -0.028056   0.020185   0.017380   0.344417
     7  O   -0.000642  -0.037661  -0.047358  -0.002492   0.008499   0.008515
     8  O   -0.050087   0.007336  -0.042231   0.000433  -0.001378   0.000120
     9  O   -0.000179   0.004242   0.000608  -0.013411  -0.000181  -0.033515
    10  O    0.000663  -0.000222  -0.000348  -0.040056  -0.012342   0.001648
    11  O    0.000084   0.000479   0.007011  -0.008533  -0.036101  -0.000523
    12  H   -0.039835   0.002372  -0.000257  -0.000029   0.000040   0.000199
    13  H    0.553098  -0.004179   0.000277   0.000004  -0.000017   0.000134
    14  H   -0.004179   0.520584  -0.000035  -0.000131   0.000024  -0.001636
    15  H    0.000277  -0.000035   0.552593  -0.000161  -0.003011   0.000026
    16  H    0.000004  -0.000131  -0.000161   0.574257  -0.002267  -0.002567
    17  H   -0.000017   0.000024  -0.003011  -0.002267   0.570321  -0.000175
    18  H    0.000134  -0.001636   0.000026  -0.002567  -0.000175   0.570834
    19  H    0.000005   0.000045   0.000000   0.004242  -0.000005  -0.007203
    20  H   -0.000009   0.000011  -0.000008  -0.005138   0.006606   0.000171
    21  H    0.000000  -0.000001  -0.000237   0.003812  -0.006755  -0.000005
             19         20         21
     1  C   -0.004797  -0.000271  -0.001731
     2  C    0.009937  -0.005693   0.000776
     3  C    0.002754   0.013426   0.028826
     4  C   -0.022981   0.049758  -0.015149
     5  C   -0.007529  -0.055983  -0.006471
     6  C    0.033681   0.007060   0.001250
     7  O   -0.001224   0.000091  -0.001219
     8  O    0.000171  -0.002941  -0.000594
     9  O    0.240741  -0.000365  -0.000755
    10  O    0.000121   0.239951   0.000150
    11  O   -0.000567   0.000426   0.246668
    12  H   -0.000011   0.000175   0.000000
    13  H    0.000005  -0.000009   0.000000
    14  H    0.000045   0.000011  -0.000001
    15  H    0.000000  -0.000008  -0.000237
    16  H    0.004242  -0.005138   0.003812
    17  H   -0.000005   0.006606  -0.006755
    18  H   -0.007203   0.000171  -0.000005
    19  H    0.339876  -0.000029   0.000028
    20  H   -0.000029   0.343247  -0.000014
    21  H    0.000028  -0.000014   0.334801
 Mulliken atomic charges:
              1
     1  C   -0.169433
     2  C    0.376757
     3  C    0.017338
     4  C    0.181305
     5  C    0.067445
     6  C   -0.180906
     7  O   -0.422934
     8  O   -0.438260
     9  O   -0.623040
    10  O   -0.611481
    11  O   -0.607834
    12  H    0.175408
    13  H    0.164474
    14  H    0.173064
    15  H    0.168095
    16  H    0.155533
    17  H    0.166544
    18  H    0.169034
    19  H    0.412744
    20  H    0.409530
    21  H    0.416620
 Sum of Mulliken atomic charges =   0.00000
 Mulliken charges with hydrogens summed into heavy atoms:
              1
     1  C    0.170448
     2  C    0.549821
     3  C    0.185433
     4  C    0.336838
     5  C    0.233988
     6  C   -0.011872
     7  O   -0.422934
     8  O   -0.438260
     9  O   -0.210296
    10  O   -0.201952
    11  O   -0.191214
 Sum of Mulliken charges with hydrogens summed into heavy atoms =   0.00000
 Electronic spatial extent (au):  <R**2>=           1370.1234
 Charge=              0.0000 electrons
 Dipole moment (field-independent basis, Debye):
    X=             -3.2724    Y=              0.2341    Z=              4.9638  Tot=              5.9500
 Quadrupole moment (field-independent basis, Debye-Ang):
   XX=            -54.7843   YY=            -58.0703   ZZ=            -74.6305
   XY=              6.2377   XZ=             -7.6889   YZ=             -3.0652
 Traceless Quadrupole moment (field-independent basis, Debye-Ang):
   XX=              7.7107   YY=              4.4247   ZZ=            -12.1355
   XY=              6.2377   XZ=             -7.6889   YZ=             -3.0652
 Octapole moment (field-independent basis, Debye-Ang**2):
  XXX=            -40.7617  YYY=             -1.8697  ZZZ=             19.7233  XYY=            -11.5741
  XXY=              9.8903  XXZ=              5.5221  XZZ=             -0.2011  YZZ=            -13.4335
  YYZ=             10.2539  XYZ=              7.6667
 Hexadecapole moment (field-independent basis, Debye-Ang**3):
 XXXX=           -557.4868 YYYY=           -553.8960 ZZZZ=           -467.5048 XXXY=             27.1354
 XXXZ=             -4.8468 YYYX=             -2.3571 YYYZ=             -0.5327 ZZZX=            -15.7500
 ZZZY=            -36.7285 XXYY=           -158.6751 XXZZ=           -194.9044 YYZZ=           -176.7174
 XXYZ=             -1.3077 YYXZ=            -22.8768 ZZXY=             13.3214
 N-N= 7.308806994473D+02 E-N=-2.892687599721D+03  KE= 6.053378587077D+02

 Test job not archived.
 1\1\GINC-COMPUTE-8-7\SP\RB3LYP\6-31+G(d,p)\C6H10O5\ASAROTTI.IQUIR\15-A
 pr-2019\0\\# B3LYP/6-31+G** test scrf=(pcm,solvent=water,smd,dovacuum)
 \\comment\\0,1\C,0,1.943357,0.576437,0.408333\C,0,0.861629,1.072005,-0
 .567167\C,0,0.757726,-1.140393,-0.554442\C,0,-1.021448,0.068683,0.8285
 1\C,0,-0.606221,-1.265243,0.142057\C,0,-0.493511,1.332653,0.09761\O,0,
 0.746647,-0.053804,-1.45614\O,0,1.775505,-0.85509,0.397912\O,0,-1.3710
 73,1.760468,-0.937732\O,0,-0.526735,0.155528,2.163541\O,0,-1.526629,-1
 .657618,-0.869114\H,0,1.814758,0.952227,1.425322\H,0,2.947126,0.82158,
 0.045341\H,0,1.164914,1.937904,-1.158366\H,0,1.004176,-2.051651,-1.106
 101\H,0,-2.122695,0.111245,0.827268\H,0,-0.523324,-2.043292,0.916861\H
 ,0,-0.372269,2.117624,0.85812\H,0,-2.202552,2.039009,-0.521467\H,0,-0.
 777246,-0.657568,2.631415\H,0,-2.363809,-1.887811,-0.435537\\Version=E
 M64L-G09RevC.01\State=1-A\HF=-610.8052366\RMSD=5.444e-09\Dipole=-1.287
 4662,0.0920879,1.9529102\Quadrupole=5.7327546,3.2896751,-9.0224297,4.6
 375793,-5.7164876,-2.2789249\PG=C01 [X(C6H10O5)]\\@


 GOD DOES NOT PLAY WITH DICE.
               -- A. EINSTEIN
 Job cpu time:  0 days  0 hours  9 minutes 58.9 seconds.
 File lengths (MBytes):  RWF=     56 Int=      0 D2E=      0 Chk=      4 Scr=      1
 Normal termination of Gaussian 09 at Mon Apr 15 18:01:34 2019.
