 Entering Gaussian System, Link 0=g09
 Input=/home/mmarcarino.iquir/NMR/01_RSR_Levo02_OPTB_nmr.gjc
 Output=/home/mmarcarino.iquir/NMR/01_RSR_Levo02_OPTB_nmr.log
 Initial command:
 /share/apps/Gaussian09/EM64T.SSE4.2-enabled/g09/l1.exe /tmp/Gau-27986.inp -scrdir=/tmp/
 Entering Link 1 = /share/apps/Gaussian09/EM64T.SSE4.2-enabled/g09/l1.exe PID=     27987.
  
 Copyright (c) 1988,1990,1992,1993,1995,1998,2003,2009,2011,
            Gaussian, Inc.  All Rights Reserved.
  
 This is part of the Gaussian(R) 09 program.  It is based on
 the Gaussian(R) 03 system (copyright 2003, Gaussian, Inc.),
 the Gaussian(R) 98 system (copyright 1998, Gaussian, Inc.),
 the Gaussian(R) 94 system (copyright 1995, Gaussian, Inc.),
 the Gaussian 92(TM) system (copyright 1992, Gaussian, Inc.),
 the Gaussian 90(TM) system (copyright 1990, Gaussian, Inc.),
 the Gaussian 88(TM) system (copyright 1988, Gaussian, Inc.),
 the Gaussian 86(TM) system (copyright 1986, Carnegie Mellon
 University), and the Gaussian 82(TM) system (copyright 1983,
 Carnegie Mellon University). Gaussian is a federally registered
 trademark of Gaussian, Inc.
  
 This software contains proprietary and confidential information,
 including trade secrets, belonging to Gaussian, Inc.
  
 This software is provided under written license and may be
 used, copied, transmitted, or stored only in accord with that
 written license.
  
 The following legend is applicable only to US Government
 contracts under FAR:
  
                    RESTRICTED RIGHTS LEGEND
  
 Use, reproduction and disclosure by the US Government is
 subject to restrictions as set forth in subparagraphs (a)
 and (c) of the Commercial Computer Software - Restricted
 Rights clause in FAR 52.227-19.
  
 Gaussian, Inc.
 340 Quinnipiac St., Bldg. 40, Wallingford CT 06492
  
  
 ---------------------------------------------------------------
 Warning -- This program may not be used in any manner that
 competes with the business of Gaussian, Inc. or will provide
 assistance to any competitor of Gaussian, Inc.  The licensee
 of this program is prohibited from giving any competitor of
 Gaussian, Inc. access to this program.  By using this program,
 the user acknowledges that Gaussian, Inc. is engaged in the
 business of creating and licensing software in the field of
 computational chemistry and represents and warrants to the
 licensee that it is not a competitor of Gaussian, Inc. and that
 it will not use this program in any manner prohibited above.
 ---------------------------------------------------------------
  

 Cite this work as:
 Gaussian 09, Revision C.01,
 M. J. Frisch, G. W. Trucks, H. B. Schlegel, G. E. Scuseria, 
 M. A. Robb, J. R. Cheeseman, G. Scalmani, V. Barone, B. Mennucci, 
 G. A. Petersson, H. Nakatsuji, M. Caricato, X. Li, H. P. Hratchian, 
 A. F. Izmaylov, J. Bloino, G. Zheng, J. L. Sonnenberg, M. Hada, 
 M. Ehara, K. Toyota, R. Fukuda, J. Hasegawa, M. Ishida, T. Nakajima, 
 Y. Honda, O. Kitao, H. Nakai, T. Vreven, J. A. Montgomery, Jr., 
 J. E. Peralta, F. Ogliaro, M. Bearpark, J. J. Heyd, E. Brothers, 
 K. N. Kudin, V. N. Staroverov, T. Keith, R. Kobayashi, J. Normand, 
 K. Raghavachari, A. Rendell, J. C. Burant, S. S. Iyengar, J. Tomasi, 
 M. Cossi, N. Rega, J. M. Millam, M. Klene, J. E. Knox, J. B. Cross, 
 V. Bakken, C. Adamo, J. Jaramillo, R. Gomperts, R. E. Stratmann, 
 O. Yazyev, A. J. Austin, R. Cammi, C. Pomelli, J. W. Ochterski, 
 R. L. Martin, K. Morokuma, V. G. Zakrzewski, G. A. Voth, 
 P. Salvador, J. J. Dannenberg, S. Dapprich, A. D. Daniels, 
 O. Farkas, J. B. Foresman, J. V. Ortiz, J. Cioslowski, 
 and D. J. Fox, Gaussian, Inc., Wallingford CT, 2010.
 
 ******************************************
 Gaussian 09:  EM64L-G09RevC.01 23-Sep-2011
                12-Apr-2019 
 ******************************************
 %nprocshared=4
 Will use up to    4 processors via shared memory.
 ------------------------------------------------
 # mpw1pw91/6-31+g** nmr scrf=(pcm,solvent=water)
 ------------------------------------------------
 1/38=1/1;
 2/12=2,17=6,18=5,40=1/2;
 3/5=1,6=6,7=111,11=2,16=1,25=1,30=1,70=2201,72=1,74=-7/1,2,8,3;
 4//1;
 5/5=2,38=5,53=1/2;
 8/6=1,10=90,11=11/1;
 10/13=100,45=16/2;
 6/7=2,8=2,9=2,10=2,28=1/1;
 99/9=1/99;
 -------
 comment
 -------
 Charge =  0 Multiplicity = 1
 Symbolic Z-Matrix:
 6                    -2.12298   0.56162  -0.67315 
 6                    -1.10803   1.02993   0.37436 
 6                    -0.94688  -1.17853   0.27825 
 6                     1.20637   0.07186   0.05213 
 6                     0.50587  -1.25539  -0.24598 
 6                     0.30661   1.28836  -0.21582 
 8                    -1.07708  -0.13651   1.23013 
 8                    -1.83135  -0.84227  -0.79233 
 8                     0.92456   2.47641   0.27931 
 8                     2.41139   0.11991  -0.70137 
 8                     1.15998  -2.33626   0.41218 
 1                    -2.00645   1.04167  -1.64864 
 1                    -3.15109   0.69972  -0.31918 
 1                    -1.44563   1.88118   0.96796 
 1                    -1.25045  -2.1222    0.73854 
 1                     1.43148   0.06468   1.12972 
 1                     0.47777  -1.42405  -1.33125 
 1                     0.23828   1.44984  -1.29628 
 1                     1.02091   2.38446   1.24296 
 1                     2.8444    0.96098  -0.47642 
 1                     2.09504  -2.29354   0.15051 
 
                          Input orientation:                          
 ---------------------------------------------------------------------
 Center     Atomic      Atomic             Coordinates (Angstroms)
 Number     Number       Type             X           Y           Z
 ---------------------------------------------------------------------
      1          6           0       -2.122976    0.561615   -0.673154
      2          6           0       -1.108034    1.029928    0.374364
      3          6           0       -0.946876   -1.178532    0.278250
      4          6           0        1.206367    0.071856    0.052130
      5          6           0        0.505866   -1.255391   -0.245980
      6          6           0        0.306608    1.288358   -0.215822
      7          8           0       -1.077084   -0.136507    1.230131
      8          8           0       -1.831351   -0.842270   -0.792325
      9          8           0        0.924562    2.476409    0.279305
     10          8           0        2.411393    0.119907   -0.701368
     11          8           0        1.159982   -2.336259    0.412177
     12          1           0       -2.006452    1.041669   -1.648635
     13          1           0       -3.151089    0.699721   -0.319183
     14          1           0       -1.445632    1.881182    0.967964
     15          1           0       -1.250445   -2.122195    0.738542
     16          1           0        1.431477    0.064677    1.129717
     17          1           0        0.477769   -1.424045   -1.331253
     18          1           0        0.238281    1.449841   -1.296283
     19          1           0        1.020911    2.384457    1.242957
     20          1           0        2.844399    0.960982   -0.476423
     21          1           0        2.095040   -2.293539    0.150505
 ---------------------------------------------------------------------
                    Distance matrix (angstroms):
                    1          2          3          4          5
     1  C    0.000000
     2  C    1.531900   0.000000
     3  C    2.305752   2.216417   0.000000
     4  C    3.442445   2.525508   2.500211   0.000000
     5  C    3.224097   2.865691   1.546345   1.530084   0.000000
     6  C    2.576856   1.554451   2.810850   1.536633   2.551719
     7  O    2.281175   1.447020   1.417338   2.577838   2.436501
     8  O    1.438798   2.321525   1.428810   3.282752   2.435517
     9  O    3.723050   2.496556   4.106200   2.431645   3.791776
    10  O    4.555920   3.791003   3.731429   1.422025   2.393712
    11  O    4.511478   4.059131   2.407721   2.435324   1.424540
    12  H    1.093432   2.213553   3.124881   3.762359   3.681802
    13  H    1.096077   2.182686   2.956910   4.418089   4.147426
    14  H    2.212085   1.091314   3.175896   3.338489   3.888457
    15  H    3.155477   3.176285   1.092942   3.364661   2.192091
    16  H    4.016395   2.819820   2.815516   1.100872   2.119405
    17  H    3.337636   3.383177   2.163421   2.163868   1.098659
    18  H    2.598609   2.186310   3.285133   2.157371   2.914278
    19  H    4.108316   2.668634   4.183030   2.607793   3.966194
    20  H    4.987285   4.043553   4.418237   1.937282   3.230193
    21  H    5.159649   4.621172   3.242347   2.528737   1.939182
                    6          7          8          9         10
     6  C    0.000000
     7  O    2.456751   0.000000
     8  O    3.072914   2.270980   0.000000
     9  O    1.427755   3.426075   4.444893   0.000000
    10  O    2.455840   3.995736   4.351429   2.953894   0.000000
    11  O    3.776305   3.242287   3.553998   4.820254   2.973006
    12  H    2.732042   3.246401   2.076813   3.790287   4.611325
    13  H    3.508966   2.720505   2.084060   4.486172   5.605663
    14  H    2.196164   2.067759   3.265668   2.538969   4.556907
    15  H    3.868733   2.052966   2.078272   5.107711   4.528733
    16  H    2.138504   2.518618   3.893950   2.607032   2.077537
    17  H    2.937790   3.261290   2.441504   4.243473   2.553320
    18  H    1.094596   3.260284   3.129077   2.001824   2.616307
    19  H    1.959515   3.279788   4.763354   0.972812   3.292723
    20  H    2.572056   4.415296   5.021369   2.559964   0.972369
    21  H    4.020282   3.985066   4.290881   4.913147   2.578854
                   11         12         13         14         15
    11  O    0.000000
    12  H    5.067904   0.000000
    13  H    5.323288   1.787335   0.000000
    14  H    4.988480   2.804620   2.441553   0.000000
    15  H    2.441822   4.034872   3.562926   4.014693   0.000000
    16  H    2.520529   4.526932   4.847938   3.406407   3.482547
    17  H    2.082570   3.514517   4.324729   4.462107   2.785352
    18  H    4.254753   2.308589   3.606277   2.854546   4.372214
    19  H    4.795278   4.396511   4.762793   2.532339   5.071825
    20  H    3.807712   4.991127   6.003237   4.619241   5.267814
    21  H    0.971921   5.584152   6.058224   5.534699   3.401090
                   16         17         18         19         20
    16  H    0.000000
    17  H    3.030219   0.000000
    18  H    3.037741   2.884059   0.000000
    19  H    2.358552   4.628850   2.816692   0.000000
    20  H    2.319353   3.466991   2.775429   2.882301   0.000000
    21  H    2.638248   2.359490   4.421950   4.922484   3.398012
                   21
    21  H    0.000000
 Stoichiometry    C6H10O5
 Framework group  C1[X(C6H10O5)]
 Deg. of freedom    57
 Full point group                 C1      NOp   1
 Largest Abelian subgroup         C1      NOp   1
 Largest concise Abelian subgroup C1      NOp   1
                         Standard orientation:                         
 ---------------------------------------------------------------------
 Center     Atomic      Atomic             Coordinates (Angstroms)
 Number     Number       Type             X           Y           Z
 ---------------------------------------------------------------------
      1          6           0       -2.122976    0.561616   -0.673154
      2          6           0       -1.108034    1.029928    0.374364
      3          6           0       -0.946877   -1.178532    0.278250
      4          6           0        1.206367    0.071856    0.052130
      5          6           0        0.505865   -1.255391   -0.245980
      6          6           0        0.306608    1.288358   -0.215822
      7          8           0       -1.077084   -0.136507    1.230131
      8          8           0       -1.831351   -0.842269   -0.792325
      9          8           0        0.924563    2.476409    0.279305
     10          8           0        2.411393    0.119906   -0.701368
     11          8           0        1.159981   -2.336259    0.412177
     12          1           0       -2.006452    1.041670   -1.648635
     13          1           0       -3.151089    0.699722   -0.319183
     14          1           0       -1.445631    1.881183    0.967964
     15          1           0       -1.250446   -2.122194    0.738542
     16          1           0        1.431477    0.064677    1.129717
     17          1           0        0.477768   -1.424045   -1.331253
     18          1           0        0.238282    1.449841   -1.296283
     19          1           0        1.020912    2.384457    1.242957
     20          1           0        2.844399    0.960981   -0.476423
     21          1           0        2.095039   -2.293540    0.150505
 ---------------------------------------------------------------------
 Rotational constants (GHZ):      1.3999151      1.2566901      0.8015279
 Standard basis: 6-31+G(d,p) (6D, 7F)
 There are   259 symmetry adapted basis functions of A   symmetry.
 Integral buffers will be    131072 words long.
 Raffenetti 2 integral format.
 Two-electron integral symmetry is turned on.
   259 basis functions,   422 primitive gaussians,   259 cartesian basis functions
    43 alpha electrons       43 beta electrons
       nuclear repulsion energy       716.7982774315 Hartrees.
 NAtoms=   21 NActive=   21 NUniq=   21 SFac= 1.00D+00 NAtFMM=   60 NAOKFM=F Big=F
 ------------------------------------------------------------------------------
 Polarizable Continuum Model (PCM)
 =================================
 Model                : PCM.
 Atomic radii         : UFF (Universal Force Field).
 Polarization charges : Total charges.
 Charge compensation  : None.
 Solution method      : Matrix inversion.
 Cavity type          : Scaled VdW (van der Waals Surface) (Alpha=1.100).
 Cavity algorithm     : GePol (No added spheres)
                        Default sphere list used, NSphG=   21.
                        Lebedev-Laikov grids with approx.  5.0 points / Ang**2.
                        Smoothing algorithm: Karplus/York (Gamma=1.0000).
                        Polarization charges: spherical gaussians, with
                                              point-specific exponents (IZeta= 3).
                        Self-potential: point-specific (ISelfS= 7).
                        Self-field    : sphere-specific E.n sum rule (ISelfD= 2).
 Solvent              : Water, Eps=  78.355300 Eps(inf)=   1.777849
 ------------------------------------------------------------------------------
 One-electron integrals computed using PRISM.
 NBasis=   259 RedAO= T  NBF=   259
 NBsUse=   259 1.00D-06 NBFU=   259
 Harris functional with IExCor=  908 diagonalized for initial guess.
 ExpMin= 4.38D-02 ExpMax= 5.48D+03 ExpMxC= 8.25D+02 IAcc=2 IRadAn=         4 AccDes= 0.00D+00
 HarFok:  IExCor=  908 AccDes= 0.00D+00 IRadAn=         4 IDoV= 1
 ScaDFX=  1.000000  1.000000  1.000000  1.000000
 FoFCou: FMM=F IPFlag=           0 FMFlag=      100000 FMFlg1=           0
         NFxFlg=           0 DoJE=T BraDBF=F KetDBF=T FulRan=T
         Omega=  0.000000  0.000000  1.000000  0.000000  0.000000 ICntrl=     500 IOpCl=  0
         NMat0=    1 NMatS0=    1 NMatT0=    0 NMatD0=    1 NMtDS0=    0 NMtDT0=    0
         I1Cent=           4 NGrid=           0.
 Petite list used in FoFCou.
 Initial guess orbital symmetries:
       Occupied  (A) (A) (A) (A) (A) (A) (A) (A) (A) (A) (A) (A)
                 (A) (A) (A) (A) (A) (A) (A) (A) (A) (A) (A) (A)
                 (A) (A) (A) (A) (A) (A) (A) (A) (A) (A) (A) (A)
                 (A) (A) (A) (A) (A) (A) (A)
       Virtual   (A) (A) (A) (A) (A) (A) (A) (A) (A) (A) (A) (A)
                 (A) (A) (A) (A) (A) (A) (A) (A) (A) (A) (A) (A)
                 (A) (A) (A) (A) (A) (A) (A) (A) (A) (A) (A) (A)
                 (A) (A) (A) (A) (A) (A) (A) (A) (A) (A) (A) (A)
                 (A) (A) (A) (A) (A) (A) (A) (A) (A) (A) (A) (A)
                 (A) (A) (A) (A) (A) (A) (A) (A) (A) (A) (A) (A)
                 (A) (A) (A) (A) (A) (A) (A) (A) (A) (A) (A) (A)
                 (A) (A) (A) (A) (A) (A) (A) (A) (A) (A) (A) (A)
                 (A) (A) (A) (A) (A) (A) (A) (A) (A) (A) (A) (A)
                 (A) (A) (A) (A) (A) (A) (A) (A) (A) (A) (A) (A)
                 (A) (A) (A) (A) (A) (A) (A) (A) (A) (A) (A) (A)
                 (A) (A) (A) (A) (A) (A) (A) (A) (A) (A) (A) (A)
                 (A) (A) (A) (A) (A) (A) (A) (A) (A) (A) (A) (A)
                 (A) (A) (A) (A) (A) (A) (A) (A) (A) (A) (A) (A)
                 (A) (A) (A) (A) (A) (A) (A) (A) (A) (A) (A) (A)
                 (A) (A) (A) (A) (A) (A) (A) (A) (A) (A) (A) (A)
                 (A) (A) (A) (A) (A) (A) (A) (A) (A) (A) (A) (A)
                 (A) (A) (A) (A) (A) (A) (A) (A) (A) (A) (A) (A)
 The electronic state of the initial guess is 1-A.
 Requested convergence on RMS density matrix=1.00D-08 within 128 cycles.
 Requested convergence on MAX density matrix=1.00D-06.
 Requested convergence on             energy=1.00D-06.
 No special actions if energy rises.
 Error on total polarization charges =  0.01195
 SCF Done:  E(RmPW1PW91) =  -610.644292199     A.U. after   11 cycles
             Convg  =    0.8127D-08             -V/T =  2.0090
 Range of M.O.s used for correlation:     1   259
 NBasis=   259 NAE=    43 NBE=    43 NFC=     0 NFV=     0
 NROrb=    259 NOA=    43 NOB=    43 NVA=   216 NVB=   216

 **** Warning!!: The largest alpha MO coefficient is  0.61185842D+02

 NEqPCM:  Using equilibrium solvation (IEInf=0, Eps=  78.3553, EpsInf=   1.7778)
          Differentiating once with respect to magnetic field using GIAOs.
          Electric field/nuclear overlap derivatives assumed to be zero.
 FoFCou: FMM=F IPFlag=           0 FMFlag=    10101102 FMFlg1=           0
         NFxFlg=    40000000 DoJE=F BraDBF=F KetDBF=T FulRan=T
         Omega=  0.000000  0.000000  1.000000  0.000000  0.000000 ICntrl=    6100 IOpCl=  0
         NMat0=    1 NMatS0=    1 NMatT0=    0 NMatD0=    1 NMtDS0=    0 NMtDT0=    0
         I1Cent=           7 NGrid=        1540.
 Symmetry not used in FoFCou.
          There are     3 degrees of freedom in the 1st order CPHF.  IDoFFX=0.
      3 vectors produced by pass  0 Test12= 3.10D-13 3.33D-08 XBig12= 2.50D+01 1.27D+00.
 AX will form     3 AO Fock derivatives at one time.
      3 vectors produced by pass  1 Test12= 3.10D-13 3.33D-08 XBig12= 6.67D-02 4.88D-02.
      3 vectors produced by pass  2 Test12= 3.10D-13 3.33D-08 XBig12= 1.81D-04 2.30D-03.
      3 vectors produced by pass  3 Test12= 3.10D-13 3.33D-08 XBig12= 8.49D-07 2.26D-04.
      3 vectors produced by pass  4 Test12= 3.10D-13 3.33D-08 XBig12= 2.45D-09 8.16D-06.
      3 vectors produced by pass  5 Test12= 3.10D-13 3.33D-08 XBig12= 7.04D-12 3.48D-07.
 Inverted reduced A of dimension    18 with in-core refinement.
 Calculating GIAO nuclear magnetic shielding tensors.
 SCF GIAO Magnetic shielding tensor (ppm):
      1  C    Isotropic =   126.2665   Anisotropy =    45.0627
   XX=   111.9942   YX=    -9.6482   ZX=    10.5607
   XY=     3.6103   YY=   155.4078   ZY=    10.6873
   XZ=     4.9275   YZ=     1.3699   ZZ=   111.3974
   Eigenvalues:   103.1492   119.3419   156.3083
      2  C    Isotropic =   114.6168   Anisotropy =    41.3927
   XX=   105.8625   YX=     9.3716   ZX=     4.1791
   XY=     3.1776   YY=   132.4256   ZY=   -17.7895
   XZ=    -2.1191   YZ=   -18.2714   ZZ=   105.5624
   Eigenvalues:    95.1363   106.5022   142.2120
      3  C    Isotropic =    91.2017   Anisotropy =    25.2983
   XX=    91.7827   YX=   -11.9615   ZX=    17.5277
   XY=    -8.7015   YY=    87.5294   ZY=     1.7987
   XZ=    12.1174   YZ=    13.0347   ZZ=    94.2929
   Eigenvalues:    69.3596    96.1782   108.0672
      4  C    Isotropic =   117.0015   Anisotropy =    15.9995
   XX=   118.2565   YX=    -0.6223   ZX=    -9.7039
   XY=     1.3765   YY=   115.7444   ZY=    -3.5101
   XZ=    -9.1951   YZ=    -3.2186   ZZ=   117.0036
   Eigenvalues:   107.5448   115.7918   127.6679
      5  C    Isotropic =   117.8188   Anisotropy =    28.9782
   XX=   124.6581   YX=   -18.1310   ZX=    10.2939
   XY=    -3.3014   YY=   113.8672   ZY=    -3.6896
   XZ=     6.1572   YZ=   -12.9171   ZZ=   114.9311
   Eigenvalues:   105.5335   110.7853   137.1376
      6  C    Isotropic =   117.2092   Anisotropy =    25.8532
   XX=   126.2979   YX=    16.6109   ZX=     7.5595
   XY=     0.5122   YY=   116.5812   ZY=    10.3574
   XZ=    -0.9026   YZ=    12.0248   ZZ=   108.7486
   Eigenvalues:   100.5843   116.5986   134.4447
      7  O    Isotropic =   245.5304   Anisotropy =    44.6296
   XX=   223.1748   YX=   -29.7273   ZX=    16.6893
   XY=   -20.7057   YY=   251.9990   ZY=    22.1424
   XZ=    35.2521   YZ=     9.3875   ZZ=   261.4174
   Eigenvalues:   194.7100   266.5977   275.2835
      8  O    Isotropic =   259.5281   Anisotropy =   130.5188
   XX=   238.9572   YX=   -39.4077   ZX=    66.2659
   XY=   -27.0970   YY=   243.2623   ZY=    30.5419
   XZ=    70.8406   YZ=    60.9823   ZZ=   296.3649
   Eigenvalues:   159.0711   272.9727   346.5407
      9  O    Isotropic =   283.7038   Anisotropy =    56.4251
   XX=   263.7102   YX=    10.8553   ZX=     7.3855
   XY=     7.5232   YY=   272.6519   ZY=    -3.4437
   XZ=    19.4512   YZ=    24.6706   ZZ=   314.7492
   Eigenvalues:   257.2319   272.5589   321.3205
     10  O    Isotropic =   307.2322   Anisotropy =    37.1211
   XX=   293.8113   YX=    18.4943   ZX=    -1.0407
   XY=    28.8076   YY=   306.8234   ZY=    -6.5373
   XZ=   -28.6246   YZ=    10.2066   ZZ=   321.0620
   Eigenvalues:   272.2933   317.4238   331.9796
     11  O    Isotropic =   294.9528   Anisotropy =    46.9960
   XX=   323.1694   YX=   -12.5476   ZX=     9.4833
   XY=     4.9257   YY=   281.4910   ZY=    -3.9751
   XZ=    10.6114   YZ=   -18.2742   ZZ=   280.1981
   Eigenvalues:   269.2590   289.3160   326.2835
     12  H    Isotropic =    27.7024   Anisotropy =     7.5264
   XX=    26.0163   YX=    -1.1215   ZX=     1.5744
   XY=    -1.2643   YY=    28.3377   ZY=    -4.0254
   XZ=     2.4151   YZ=    -2.7657   ZZ=    28.7531
   Eigenvalues:    24.7191    25.6680    32.7200
     13  H    Isotropic =    27.8169   Anisotropy =    10.8630
   XX=    33.4306   YX=    -3.4979   ZX=     0.3353
   XY=    -3.5565   YY=    27.1060   ZY=     1.1314
   XZ=    -1.1378   YZ=     1.0120   ZZ=    22.9142
   Eigenvalues:    22.6329    25.7590    35.0590
     14  H    Isotropic =    27.1590   Anisotropy =     6.6434
   XX=    26.4822   YX=    -2.2412   ZX=    -1.8570
   XY=    -0.7428   YY=    30.2037   ZY=     2.4338
   XZ=    -1.1857   YZ=     1.5822   ZZ=    24.7912
   Eigenvalues:    23.7082    26.1809    31.5880
     15  H    Isotropic =    26.2299   Anisotropy =     6.4226
   XX=    25.4096   YX=     1.5929   ZX=    -0.0359
   XY=     1.1161   YY=    29.4382   ZY=    -1.9017
   XZ=    -0.1205   YZ=    -2.4205   ZZ=    23.8420
   Eigenvalues:    23.0426    25.1356    30.5117
     16  H    Isotropic =    28.2042   Anisotropy =     3.6221
   XX=    29.5554   YX=     0.4455   ZX=    -1.7717
   XY=    -0.5097   YY=    25.6807   ZY=    -0.3507
   XZ=    -0.5108   YZ=    -0.3103   ZZ=    29.3764
   Eigenvalues:    25.6464    28.3472    30.6189
     17  H    Isotropic =    28.0541   Anisotropy =     3.1656
   XX=    27.2106   YX=    -1.6451   ZX=     1.6688
   XY=    -3.0199   YY=    27.4570   ZY=     0.3725
   XZ=     1.1112   YZ=     1.5891   ZZ=    29.4947
   Eigenvalues:    24.4365    29.5613    30.1645
     18  H    Isotropic =    28.2471   Anisotropy =     3.6771
   XX=    27.4438   YX=     1.7825   ZX=     1.8528
   XY=     2.9999   YY=    27.3634   ZY=     0.1515
   XZ=     1.0480   YZ=    -1.4194   ZZ=    29.9341
   Eigenvalues:    24.6022    29.4406    30.6985
     19  H    Isotropic =    30.4354   Anisotropy =    15.9349
   XX=    24.1795   YX=     2.5756   ZX=     3.4138
   XY=     2.4674   YY=    27.4049   ZY=     2.7569
   XZ=     2.9234   YZ=     2.5739   ZZ=    39.7219
   Eigenvalues:    22.6456    27.6020    41.0587
     20  H    Isotropic =    29.0412   Anisotropy =    18.2560
   XX=    32.1561   YX=     8.0260   ZX=    -1.6479
   XY=     7.1990   YY=    34.3364   ZY=     4.6499
   XZ=    -0.5077   YZ=     3.4041   ZZ=    20.6311
   Eigenvalues:    18.6582    27.2536    41.2119
     21  H    Isotropic =    29.3136   Anisotropy =    17.9184
   XX=    40.0391   YX=    -3.0730   ZX=    -4.2587
   XY=    -3.3025   YY=    27.0667   ZY=    -3.0536
   XZ=    -3.1900   YZ=    -1.8335   ZZ=    20.8351
   Eigenvalues:    18.9858    27.6959    41.2592
 End of Minotr Frequency-dependent properties file   721 does not exist.
 End of Minotr Frequency-dependent properties file   722 does not exist.

 **********************************************************************

            Population analysis using the SCF density.

 **********************************************************************

 Orbital symmetries:
       Occupied  (A) (A) (A) (A) (A) (A) (A) (A) (A) (A) (A) (A)
                 (A) (A) (A) (A) (A) (A) (A) (A) (A) (A) (A) (A)
                 (A) (A) (A) (A) (A) (A) (A) (A) (A) (A) (A) (A)
                 (A) (A) (A) (A) (A) (A) (A)
       Virtual   (A) (A) (A) (A) (A) (A) (A) (A) (A) (A) (A) (A)
                 (A) (A) (A) (A) (A) (A) (A) (A) (A) (A) (A) (A)
                 (A) (A) (A) (A) (A) (A) (A) (A) (A) (A) (A) (A)
                 (A) (A) (A) (A) (A) (A) (A) (A) (A) (A) (A) (A)
                 (A) (A) (A) (A) (A) (A) (A) (A) (A) (A) (A) (A)
                 (A) (A) (A) (A) (A) (A) (A) (A) (A) (A) (A) (A)
                 (A) (A) (A) (A) (A) (A) (A) (A) (A) (A) (A) (A)
                 (A) (A) (A) (A) (A) (A) (A) (A) (A) (A) (A) (A)
                 (A) (A) (A) (A) (A) (A) (A) (A) (A) (A) (A) (A)
                 (A) (A) (A) (A) (A) (A) (A) (A) (A) (A) (A) (A)
                 (A) (A) (A) (A) (A) (A) (A) (A) (A) (A) (A) (A)
                 (A) (A) (A) (A) (A) (A) (A) (A) (A) (A) (A) (A)
                 (A) (A) (A) (A) (A) (A) (A) (A) (A) (A) (A) (A)
                 (A) (A) (A) (A) (A) (A) (A) (A) (A) (A) (A) (A)
                 (A) (A) (A) (A) (A) (A) (A) (A) (A) (A) (A) (A)
                 (A) (A) (A) (A) (A) (A) (A) (A) (A) (A) (A) (A)
                 (A) (A) (A) (A) (A) (A) (A) (A) (A) (A) (A) (A)
                 (A) (A) (A) (A) (A) (A) (A) (A) (A) (A) (A) (A)
 The electronic state is 1-A.
 Alpha  occ. eigenvalues --  -19.27957 -19.27020 -19.26984 -19.26606 -19.26469
 Alpha  occ. eigenvalues --  -10.36170 -10.32142 -10.31808 -10.31384 -10.31294
 Alpha  occ. eigenvalues --  -10.30813  -1.14458  -1.08631  -1.07210  -1.05782
 Alpha  occ. eigenvalues --   -1.04168  -0.82291  -0.81425  -0.70367  -0.68847
 Alpha  occ. eigenvalues --   -0.65264  -0.60393  -0.57893  -0.57217  -0.53379
 Alpha  occ. eigenvalues --   -0.52480  -0.51257  -0.48870  -0.47218  -0.46722
 Alpha  occ. eigenvalues --   -0.45078  -0.43354  -0.41667  -0.40396  -0.39289
 Alpha  occ. eigenvalues --   -0.38080  -0.37087  -0.36519  -0.33528  -0.31965
 Alpha  occ. eigenvalues --   -0.31000  -0.28874  -0.28175
 Alpha virt. eigenvalues --    0.00800   0.01307   0.02022   0.02652   0.03765
 Alpha virt. eigenvalues --    0.04241   0.04571   0.05180   0.05992   0.07691
 Alpha virt. eigenvalues --    0.08240   0.09242   0.09699   0.10185   0.11085
 Alpha virt. eigenvalues --    0.11640   0.12598   0.13119   0.13813   0.14108
 Alpha virt. eigenvalues --    0.14933   0.15334   0.15881   0.16078   0.16495
 Alpha virt. eigenvalues --    0.17730   0.18626   0.19332   0.20637   0.21067
 Alpha virt. eigenvalues --    0.21920   0.22299   0.22788   0.23354   0.24370
 Alpha virt. eigenvalues --    0.24739   0.25502   0.25680   0.26590   0.27038
 Alpha virt. eigenvalues --    0.28223   0.28360   0.29092   0.30044   0.30344
 Alpha virt. eigenvalues --    0.31612   0.32143   0.32603   0.33177   0.33827
 Alpha virt. eigenvalues --    0.34594   0.35035   0.35503   0.35830   0.36467
 Alpha virt. eigenvalues --    0.37735   0.38646   0.38832   0.40122   0.40523
 Alpha virt. eigenvalues --    0.41017   0.42203   0.42941   0.44232   0.45180
 Alpha virt. eigenvalues --    0.45643   0.64297   0.68009   0.69344   0.69665
 Alpha virt. eigenvalues --    0.71355   0.73769   0.75344   0.77013   0.78998
 Alpha virt. eigenvalues --    0.80499   0.81154   0.81842   0.84619   0.85125
 Alpha virt. eigenvalues --    0.86486   0.89755   0.94582   0.95527   0.97872
 Alpha virt. eigenvalues --    0.98744   1.02376   1.03714   1.05193   1.05606
 Alpha virt. eigenvalues --    1.06960   1.08244   1.09908   1.12065   1.15352
 Alpha virt. eigenvalues --    1.18358   1.22309   1.25047   1.25561   1.26331
 Alpha virt. eigenvalues --    1.28819   1.29031   1.31080   1.32468   1.33771
 Alpha virt. eigenvalues --    1.34930   1.37484   1.37841   1.38613   1.40866
 Alpha virt. eigenvalues --    1.42731   1.44804   1.46883   1.48858   1.49920
 Alpha virt. eigenvalues --    1.52713   1.53703   1.55587   1.57747   1.60427
 Alpha virt. eigenvalues --    1.61111   1.62264   1.65594   1.67067   1.68380
 Alpha virt. eigenvalues --    1.71016   1.73488   1.76343   1.79178   1.79664
 Alpha virt. eigenvalues --    1.80773   1.82999   1.83825   1.85378   1.86514
 Alpha virt. eigenvalues --    1.87655   1.93146   1.95407   1.95773   1.97781
 Alpha virt. eigenvalues --    1.99904   2.00917   2.03180   2.03407   2.07817
 Alpha virt. eigenvalues --    2.08668   2.11171   2.13876   2.14823   2.18464
 Alpha virt. eigenvalues --    2.19892   2.21743   2.24010   2.28672   2.31494
 Alpha virt. eigenvalues --    2.34588   2.35769   2.37844   2.40769   2.41817
 Alpha virt. eigenvalues --    2.43821   2.47180   2.49484   2.49968   2.51106
 Alpha virt. eigenvalues --    2.55253   2.56339   2.60360   2.61239   2.62232
 Alpha virt. eigenvalues --    2.63444   2.66145   2.67834   2.68860   2.69531
 Alpha virt. eigenvalues --    2.72297   2.75165   2.77541   2.78037   2.80498
 Alpha virt. eigenvalues --    2.83682   2.86374   2.87432   2.89131   2.92768
 Alpha virt. eigenvalues --    2.93972   2.95495   2.98223   3.01982   3.04724
 Alpha virt. eigenvalues --    3.05796   3.07408   3.10839   3.22022   3.27826
 Alpha virt. eigenvalues --    3.34460   3.36684   3.41926   3.46132   3.49470
 Alpha virt. eigenvalues --    3.52200   3.52298   3.54294   3.57140   3.61141
 Alpha virt. eigenvalues --    4.28216   4.36901   4.40988   4.42403   4.50057
 Alpha virt. eigenvalues --    4.59503   4.65797   4.74562   4.78693   4.93341
 Alpha virt. eigenvalues --    5.02118
          Condensed to atoms (all electrons):
              1          2          3          4          5          6
     1  C    5.580986  -0.146228  -0.311805   0.070353   0.154932  -0.184516
     2  C   -0.146228   6.468228  -0.323562   0.077521  -0.056623  -0.330242
     3  C   -0.311805  -0.323562   6.484608  -0.258702  -0.519138   0.108829
     4  C    0.070353   0.077521  -0.258702   5.836182   0.195132  -0.279203
     5  C    0.154932  -0.056623  -0.519138   0.195132   6.283043  -0.400054
     6  C   -0.184516  -0.330242   0.108829  -0.279203  -0.400054   6.666516
     7  O   -0.026050   0.095093   0.338274  -0.024278  -0.136100  -0.109160
     8  O    0.168723  -0.118977   0.319521   0.012660  -0.151386   0.058518
     9  O    0.002992  -0.001496  -0.010209  -0.092690   0.016230   0.227220
    10  O    0.001314   0.027157   0.060326   0.263706  -0.149972  -0.110281
    11  O    0.005349   0.008659  -0.154143  -0.098645   0.322827   0.011948
    12  H    0.467353  -0.126326   0.015412   0.002433   0.008770  -0.002428
    13  H    0.370875   0.000041  -0.015404  -0.000326   0.005248   0.017274
    14  H    0.020722   0.313079   0.000390   0.015734   0.008703  -0.014353
    15  H    0.004832   0.021291   0.336097   0.015704  -0.003774   0.007848
    16  H    0.007972  -0.040514   0.008553   0.428064  -0.085204   0.002937
    17  H    0.017012  -0.009993  -0.071786  -0.012077   0.387568   0.003535
    18  H    0.046123  -0.152082   0.000027  -0.060347   0.015134   0.480637
    19  H    0.011447  -0.071271   0.000177  -0.035792   0.010030   0.078041
    20  H    0.000624   0.012846  -0.007524   0.022661   0.033254  -0.066834
    21  H   -0.001544  -0.001892   0.031915  -0.030362  -0.019692   0.017342
              7          8          9         10         11         12
     1  C   -0.026050   0.168723   0.002992   0.001314   0.005349   0.467353
     2  C    0.095093  -0.118977  -0.001496   0.027157   0.008659  -0.126326
     3  C    0.338274   0.319521  -0.010209   0.060326  -0.154143   0.015412
     4  C   -0.024278   0.012660  -0.092690   0.263706  -0.098645   0.002433
     5  C   -0.136100  -0.151386   0.016230  -0.149972   0.322827   0.008770
     6  C   -0.109160   0.058518   0.227220  -0.110281   0.011948  -0.002428
     7  O    8.321338  -0.071775   0.000139  -0.000131   0.016544   0.012112
     8  O   -0.071775   8.301672  -0.001105  -0.004792   0.004586  -0.051083
     9  O    0.000139  -0.001105   8.239563  -0.006301   0.000317   0.000631
    10  O   -0.000131  -0.004792  -0.006301   8.298217  -0.012135   0.000190
    11  O    0.016544   0.004586   0.000317  -0.012135   8.241687  -0.000018
    12  H    0.012112  -0.051083   0.000631   0.000190  -0.000018   0.527234
    13  H   -0.006650  -0.046665  -0.000282  -0.000040   0.000030  -0.037538
    14  H   -0.035337   0.008295  -0.002995  -0.000378   0.000005   0.001852
    15  H   -0.048893  -0.041398  -0.000016  -0.000783  -0.000714  -0.000249
    16  H    0.006707  -0.001111  -0.013898  -0.054053  -0.004189   0.000003
    17  H    0.010893  -0.008167  -0.000485  -0.001068  -0.043079  -0.000011
    18  H    0.011021  -0.001885  -0.063294  -0.004301  -0.000300   0.002254
    19  H    0.003470  -0.000209   0.244763  -0.002830  -0.000171   0.000000
    20  H    0.000186   0.000038   0.015887   0.239003   0.001240  -0.000002
    21  H   -0.001350  -0.000120  -0.000075   0.013010   0.243066   0.000000
             13         14         15         16         17         18
     1  C    0.370875   0.020722   0.004832   0.007972   0.017012   0.046123
     2  C    0.000041   0.313079   0.021291  -0.040514  -0.009993  -0.152082
     3  C   -0.015404   0.000390   0.336097   0.008553  -0.071786   0.000027
     4  C   -0.000326   0.015734   0.015704   0.428064  -0.012077  -0.060347
     5  C    0.005248   0.008703  -0.003774  -0.085204   0.387568   0.015134
     6  C    0.017274  -0.014353   0.007848   0.002937   0.003535   0.480637
     7  O   -0.006650  -0.035337  -0.048893   0.006707   0.010893   0.011021
     8  O   -0.046665   0.008295  -0.041398  -0.001111  -0.008167  -0.001885
     9  O   -0.000282  -0.002995  -0.000016  -0.013898  -0.000485  -0.063294
    10  O   -0.000040  -0.000378  -0.000783  -0.054053  -0.001068  -0.004301
    11  O    0.000030   0.000005  -0.000714  -0.004189  -0.043079  -0.000300
    12  H   -0.037538   0.001852  -0.000249   0.000003  -0.000011   0.002254
    13  H    0.537493  -0.002944   0.000514   0.000001  -0.000043   0.000115
    14  H   -0.002944   0.484419   0.000005  -0.000065   0.000009   0.002189
    15  H    0.000514   0.000005   0.520680  -0.000227  -0.000098   0.000006
    16  H    0.000001  -0.000065  -0.000227   0.548499   0.004125   0.004173
    17  H   -0.000043   0.000009  -0.000098   0.004125   0.536643   0.001896
    18  H    0.000115   0.002189   0.000006   0.004173   0.001896   0.521259
    19  H    0.000001   0.000653   0.000000   0.004817   0.000009   0.006949
    20  H    0.000000  -0.000002   0.000005  -0.004553   0.000050  -0.000323
    21  H    0.000000  -0.000001  -0.000010  -0.000640  -0.003974  -0.000007
             19         20         21
     1  C    0.011447   0.000624  -0.001544
     2  C   -0.071271   0.012846  -0.001892
     3  C    0.000177  -0.007524   0.031915
     4  C   -0.035792   0.022661  -0.030362
     5  C    0.010030   0.033254  -0.019692
     6  C    0.078041  -0.066834   0.017342
     7  O    0.003470   0.000186  -0.001350
     8  O   -0.000209   0.000038  -0.000120
     9  O    0.244763   0.015887  -0.000075
    10  O   -0.002830   0.239003   0.013010
    11  O   -0.000171   0.001240   0.243066
    12  H    0.000000  -0.000002   0.000000
    13  H    0.000001   0.000000   0.000000
    14  H    0.000653  -0.000002  -0.000001
    15  H    0.000000   0.000005  -0.000010
    16  H    0.004817  -0.004553  -0.000640
    17  H    0.000009   0.000050  -0.003974
    18  H    0.006949  -0.000323  -0.000007
    19  H    0.368554  -0.000361   0.000000
    20  H   -0.000361   0.362808  -0.000560
    21  H    0.000000  -0.000560   0.370200
 Mulliken atomic charges:
              1
     1  C   -0.261467
     2  C    0.355292
     3  C   -0.031857
     4  C   -0.047730
     5  C    0.081072
     6  C   -0.183573
     7  O   -0.356055
     8  O   -0.375340
     9  O   -0.554895
    10  O   -0.555860
    11  O   -0.542865
    12  H    0.179410
    13  H    0.178298
    14  H    0.200019
    15  H    0.189180
    16  H    0.188602
    17  H    0.189041
    18  H    0.190755
    19  H    0.381724
    20  H    0.391557
    21  H    0.384693
 Sum of Mulliken atomic charges =   0.00000
 Mulliken charges with hydrogens summed into heavy atoms:
              1
     1  C    0.096241
     2  C    0.555311
     3  C    0.157323
     4  C    0.140871
     5  C    0.270113
     6  C    0.007183
     7  O   -0.356055
     8  O   -0.375340
     9  O   -0.173171
    10  O   -0.164303
    11  O   -0.158173
 Sum of Mulliken charges with hydrogens summed into heavy atoms =   0.00000
 Electronic spatial extent (au):  <R**2>=           1514.7555
 Charge=              0.0000 electrons
 Dipole moment (field-independent basis, Debye):
    X=              0.3504    Y=              3.1682    Z=              0.6275  Tot=              3.2487
 Quadrupole moment (field-independent basis, Debye-Ang):
   XX=            -60.9240   YY=            -69.8098   ZZ=            -66.0977
   XY=             -3.5973   XZ=              3.2473   YZ=              3.3494
 Traceless Quadrupole moment (field-independent basis, Debye-Ang):
   XX=              4.6865   YY=             -4.1993   ZZ=             -0.4872
   XY=             -3.5973   XZ=              3.2473   YZ=              3.3494
 Octapole moment (field-independent basis, Debye-Ang**2):
  XXX=             17.0467  YYY=             -5.0297  ZZZ=              0.5683  XYY=             -1.0781
  XXY=             11.8606  XXZ=              9.0821  XZZ=              5.0775  YZZ=             13.6900
  YYZ=              5.9479  XYZ=              9.2777
 Hexadecapole moment (field-independent basis, Debye-Ang**3):
 XXXX=           -800.3734 YYYY=           -865.3195 ZZZZ=           -230.3959 XXXY=            -14.5287
 XXXZ=             10.3533 YYYX=            -12.8394 YYYZ=             33.0276 ZZZX=             13.0700
 ZZZY=             11.8664 XXYY=           -235.8284 XXZZ=           -193.3280 YYZZ=           -146.1388
 XXYZ=             -7.8797 YYXZ=             -7.5582 ZZXY=              4.3472
 N-N= 7.167982774315D+02 E-N=-2.863303832007D+03  KE= 6.052093969978D+02
 1\1\GINC-COMPUTE-8-11\SP\RmPW1PW91\6-31+G(d,p)\C6H10O5\MMARCARINO.IQUI
 R\12-Apr-2019\0\\# mpw1pw91/6-31+g** nmr scrf=(pcm,solvent=water)\\com
 ment\\0,1\C,0,-2.122976,0.561615,-0.673154\C,0,-1.108034,1.029928,0.37
 4364\C,0,-0.946876,-1.178532,0.27825\C,0,1.206367,0.071856,0.05213\C,0
 ,0.505866,-1.255391,-0.24598\C,0,0.306608,1.288358,-0.215822\O,0,-1.07
 7084,-0.136507,1.230131\O,0,-1.831351,-0.84227,-0.792325\O,0,0.924562,
 2.476409,0.279305\O,0,2.411393,0.119907,-0.701368\O,0,1.159982,-2.3362
 59,0.412177\H,0,-2.006452,1.041669,-1.648635\H,0,-3.151089,0.699721,-0
 .319183\H,0,-1.445632,1.881182,0.967964\H,0,-1.250445,-2.122195,0.7385
 42\H,0,1.431477,0.064677,1.129717\H,0,0.477769,-1.424045,-1.331253\H,0
 ,0.238281,1.449841,-1.296283\H,0,1.020911,2.384457,1.242957\H,0,2.8443
 99,0.960982,-0.476423\H,0,2.09504,-2.293539,0.150505\\Version=EM64L-G0
 9RevC.01\State=1-A\HF=-610.6442922\RMSD=8.127e-09\Dipole=0.1378621,1.2
 464584,0.2468969\Quadrupole=3.4843049,-3.1220591,-0.3622457,-2.674491,
 2.4143037,2.4902068\PG=C01 [X(C6H10O5)]\\@


 THE DIFFERENCE BETWEEN A NOOSE AND A HALO IS ONLY 12 INCHES.
 Job cpu time:  0 days  0 hours 22 minutes 14.3 seconds.
 File lengths (MBytes):  RWF=     83 Int=      0 D2E=      0 Chk=      5 Scr=      1
 Normal termination of Gaussian 09 at Fri Apr 12 09:58:14 2019.
