 Entering Gaussian System, Link 0=g09
 Input=/home/asarotti.iquir/SCF3/01_RSR_Levo11_OPTB_energy_b3lyp_smd.gjc
 Output=/home/asarotti.iquir/SCF3/01_RSR_Levo11_OPTB_energy_b3lyp_smd.log
 Initial command:
 /share/apps/Gaussian09/EM64T.SSE4.2-enabled/g09/l1.exe /tmp/Gau-9610.inp -scrdir=/tmp/
 Entering Link 1 = /share/apps/Gaussian09/EM64T.SSE4.2-enabled/g09/l1.exe PID=      9611.
  
 Copyright (c) 1988,1990,1992,1993,1995,1998,2003,2009,2011,
            Gaussian, Inc.  All Rights Reserved.
  
 This is part of the Gaussian(R) 09 program.  It is based on
 the Gaussian(R) 03 system (copyright 2003, Gaussian, Inc.),
 the Gaussian(R) 98 system (copyright 1998, Gaussian, Inc.),
 the Gaussian(R) 94 system (copyright 1995, Gaussian, Inc.),
 the Gaussian 92(TM) system (copyright 1992, Gaussian, Inc.),
 the Gaussian 90(TM) system (copyright 1990, Gaussian, Inc.),
 the Gaussian 88(TM) system (copyright 1988, Gaussian, Inc.),
 the Gaussian 86(TM) system (copyright 1986, Carnegie Mellon
 University), and the Gaussian 82(TM) system (copyright 1983,
 Carnegie Mellon University). Gaussian is a federally registered
 trademark of Gaussian, Inc.
  
 This software contains proprietary and confidential information,
 including trade secrets, belonging to Gaussian, Inc.
  
 This software is provided under written license and may be
 used, copied, transmitted, or stored only in accord with that
 written license.
  
 The following legend is applicable only to US Government
 contracts under FAR:
  
                    RESTRICTED RIGHTS LEGEND
  
 Use, reproduction and disclosure by the US Government is
 subject to restrictions as set forth in subparagraphs (a)
 and (c) of the Commercial Computer Software - Restricted
 Rights clause in FAR 52.227-19.
  
 Gaussian, Inc.
 340 Quinnipiac St., Bldg. 40, Wallingford CT 06492
  
  
 ---------------------------------------------------------------
 Warning -- This program may not be used in any manner that
 competes with the business of Gaussian, Inc. or will provide
 assistance to any competitor of Gaussian, Inc.  The licensee
 of this program is prohibited from giving any competitor of
 Gaussian, Inc. access to this program.  By using this program,
 the user acknowledges that Gaussian, Inc. is engaged in the
 business of creating and licensing software in the field of
 computational chemistry and represents and warrants to the
 licensee that it is not a competitor of Gaussian, Inc. and that
 it will not use this program in any manner prohibited above.
 ---------------------------------------------------------------
  

 Cite this work as:
 Gaussian 09, Revision C.01,
 M. J. Frisch, G. W. Trucks, H. B. Schlegel, G. E. Scuseria, 
 M. A. Robb, J. R. Cheeseman, G. Scalmani, V. Barone, B. Mennucci, 
 G. A. Petersson, H. Nakatsuji, M. Caricato, X. Li, H. P. Hratchian, 
 A. F. Izmaylov, J. Bloino, G. Zheng, J. L. Sonnenberg, M. Hada, 
 M. Ehara, K. Toyota, R. Fukuda, J. Hasegawa, M. Ishida, T. Nakajima, 
 Y. Honda, O. Kitao, H. Nakai, T. Vreven, J. A. Montgomery, Jr., 
 J. E. Peralta, F. Ogliaro, M. Bearpark, J. J. Heyd, E. Brothers, 
 K. N. Kudin, V. N. Staroverov, T. Keith, R. Kobayashi, J. Normand, 
 K. Raghavachari, A. Rendell, J. C. Burant, S. S. Iyengar, J. Tomasi, 
 M. Cossi, N. Rega, J. M. Millam, M. Klene, J. E. Knox, J. B. Cross, 
 V. Bakken, C. Adamo, J. Jaramillo, R. Gomperts, R. E. Stratmann, 
 O. Yazyev, A. J. Austin, R. Cammi, C. Pomelli, J. W. Ochterski, 
 R. L. Martin, K. Morokuma, V. G. Zakrzewski, G. A. Voth, 
 P. Salvador, J. J. Dannenberg, S. Dapprich, A. D. Daniels, 
 O. Farkas, J. B. Foresman, J. V. Ortiz, J. Cioslowski, 
 and D. J. Fox, Gaussian, Inc., Wallingford CT, 2010.
 
 ******************************************
 Gaussian 09:  EM64L-G09RevC.01 23-Sep-2011
                16-Apr-2019 
 ******************************************
 %nprocshared=4
 Will use up to    4 processors via shared memory.
 -----------------------------------------------------------
 # B3LYP/6-31+G** test scrf=(pcm,solvent=water,smd,dovacuum)
 -----------------------------------------------------------
 1/38=1/1;
 2/12=2,17=6,18=5,40=1/2;
 3/5=1,6=6,7=111,11=2,16=1,25=1,30=1,70=32101,72=1,74=-5/1,2,3;
 4//1;
 5/5=2,38=5,53=1/2;
 6/7=2,8=2,9=2,10=2,28=1/1;
 99/5=1,9=1/99;
 -------
 comment
 -------
 Charge =  0 Multiplicity = 1
 Symbolic Z-Matrix:
 6                     1.93189   0.71605   0.10409 
 6                     0.68265   1.07995  -0.7154 
 6                     0.74587  -1.13135  -0.57564 
 6                    -0.85312   0.04132   1.03401 
 6                    -0.53082  -1.27428   0.27763 
 6                    -0.58828   1.26534   0.12553 
 8                     0.53088  -0.1014   -1.52717 
 8                     1.86433  -0.72192   0.19914 
 8                    -1.65396   1.41618  -0.81798 
 8                    -0.0869    0.22449   2.21925 
 8                    -1.61576  -1.63142  -0.57328 
 1                     1.9373    1.14891   1.10554 
 1                     2.84619   0.99557  -0.43011 
 1                     0.8248    1.9307   -1.38393 
 1                     0.97721  -2.0574   -1.10881 
 1                    -1.92708   0.01585   1.27465 
 1                    -0.40898  -2.09455   0.99416 
 1                    -0.48586   2.15903   0.75587 
 1                    -2.45439   1.65947  -0.32455 
 1                    -0.19424  -0.5669    2.77106 
 1                    -1.75279  -0.86024  -1.15493 
 
                          Input orientation:                          
 ---------------------------------------------------------------------
 Center     Atomic      Atomic             Coordinates (Angstroms)
 Number     Number       Type             X           Y           Z
 ---------------------------------------------------------------------
      1          6           0        1.931893    0.716047    0.104087
      2          6           0        0.682645    1.079950   -0.715398
      3          6           0        0.745874   -1.131345   -0.575642
      4          6           0       -0.853120    0.041315    1.034012
      5          6           0       -0.530819   -1.274277    0.277632
      6          6           0       -0.588280    1.265336    0.125531
      7          8           0        0.530876   -0.101401   -1.527168
      8          8           0        1.864325   -0.721918    0.199140
      9          8           0       -1.653956    1.416181   -0.817983
     10          8           0       -0.086900    0.224487    2.219252
     11          8           0       -1.615760   -1.631423   -0.573279
     12          1           0        1.937303    1.148912    1.105540
     13          1           0        2.846188    0.995566   -0.430114
     14          1           0        0.824795    1.930702   -1.383932
     15          1           0        0.977212   -2.057403   -1.108805
     16          1           0       -1.927078    0.015851    1.274654
     17          1           0       -0.408978   -2.094552    0.994164
     18          1           0       -0.485855    2.159032    0.755871
     19          1           0       -2.454394    1.659467   -0.324545
     20          1           0       -0.194239   -0.566898    2.771063
     21          1           0       -1.752791   -0.860239   -1.154928
 ---------------------------------------------------------------------
                    Distance matrix (angstroms):
                    1          2          3          4          5
     1  C    0.000000
     2  C    1.537726   0.000000
     3  C    2.298158   2.216609   0.000000
     4  C    3.012693   2.549073   2.553997   0.000000
     5  C    3.171192   2.828602   1.542223   1.551377   0.000000
     6  C    2.579428   1.535181   2.831199   1.547160   2.544813
     7  O    2.300448   1.441386   1.418595   2.914697   2.400029
     8  O    1.442686   2.340828   1.420863   2.943475   2.459263
     9  O    3.768118   2.362896   3.508248   2.441614   3.114542
    10  O    2.964975   3.152172   3.216089   1.423179   2.492638
    11  O    4.307584   3.557303   2.414001   2.441937   1.424324
    12  H    1.091013   2.212405   3.073345   3.003056   3.556530
    13  H    1.095188   2.183902   2.992699   4.091349   4.130045
    14  H    2.217037   1.091294   3.167916   3.497375   3.856212
    15  H    3.174043   3.175614   1.093327   3.513744   2.193092
    16  H    4.092940   3.450111   3.447365   1.100883   2.146630
    17  H    3.764489   3.767188   2.173877   2.181921   1.095954
    18  H    2.890075   2.166666   3.757215   2.167250   3.466748
    19  H    4.507026   3.213973   4.253633   2.651070   3.559440
    20  H    3.644056   3.954294   3.521768   1.954838   2.613593
    21  H    4.200797   3.144657   2.579224   2.532522   1.927919
                    6          7          8          9         10
     6  C    0.000000
     7  O    2.419069   0.000000
     8  O    3.157510   2.267877   0.000000
     9  O    1.431306   2.753087   4.240791   0.000000
    10  O    2.391321   3.810973   2.963750   3.619474   0.000000
    11  O    3.152025   2.803376   3.678970   3.057651   3.685111
    12  H    2.711557   3.236120   2.080118   4.082709   2.488436
    13  H    3.489568   2.787030   2.075998   4.536370   4.026997
    14  H    2.172089   2.058239   3.259315   2.594077   4.089657
    15  H    3.874912   2.049436   2.069108   4.367311   4.173167
    16  H    2.161961   3.729007   4.009460   2.532716   2.078954
    17  H    3.474985   3.348595   2.772020   4.142354   2.642445
    18  H    1.098413   3.369802   3.759411   2.096021   2.458274
    19  H    1.959666   3.668623   4.959493   0.971272   3.759667
    20  H    3.242096   4.383751   3.297955   4.352543   0.970725
    21  H    2.741118   2.435063   3.864733   2.303343   3.916237
                   11         12         13         14         15
    11  O    0.000000
    12  H    4.813829   0.000000
    13  H    5.179821   1.791039   0.000000
    14  H    4.393427   2.836607   2.422866   0.000000
    15  H    2.681744   4.013173   3.643393   4.000488   0.000000
    16  H    2.495052   4.030616   5.162378   4.278731   4.291172
    17  H    2.031671   4.004684   4.708875   4.835308   2.519004
    18  H    4.172634   2.648453   3.723268   2.519662   4.836931
    19  H    3.405163   4.646807   5.343040   3.456725   5.119190
    20  H    3.786629   3.203349   4.683271   4.953829   4.318249
    21  H    0.975612   4.771079   5.011983   3.806014   2.981316
                   16         17         18         19         20
    16  H    0.000000
    17  H    2.614785   0.000000
    18  H    2.634290   4.260947   0.000000
    19  H    2.353077   4.473855   2.300437   0.000000
    20  H    2.362534   2.353128   3.402460   4.432583   0.000000
    21  H    2.588586   2.819212   3.791079   2.744212   4.234211
                   21
    21  H    0.000000
 Stoichiometry    C6H10O5
 Framework group  C1[X(C6H10O5)]
 Deg. of freedom    57
 Full point group                 C1      NOp   1
 Largest Abelian subgroup         C1      NOp   1
 Largest concise Abelian subgroup C1      NOp   1
                         Standard orientation:                         
 ---------------------------------------------------------------------
 Center     Atomic      Atomic             Coordinates (Angstroms)
 Number     Number       Type             X           Y           Z
 ---------------------------------------------------------------------
      1          6           0       -1.931893   -0.716048    0.104087
      2          6           0       -0.682645   -1.079950   -0.715398
      3          6           0       -0.745874    1.131345   -0.575642
      4          6           0        0.853120   -0.041315    1.034012
      5          6           0        0.530818    1.274277    0.277632
      6          6           0        0.588281   -1.265336    0.125531
      7          8           0       -0.530876    0.101401   -1.527168
      8          8           0       -1.864325    0.721917    0.199140
      9          8           0        1.653957   -1.416180   -0.817983
     10          8           0        0.086900   -0.224487    2.219252
     11          8           0        1.615759    1.631424   -0.573279
     12          1           0       -1.937302   -1.148913    1.105540
     13          1           0       -2.846188   -0.995567   -0.430114
     14          1           0       -0.824794   -1.930702   -1.383932
     15          1           0       -0.977213    2.057403   -1.108805
     16          1           0        1.927078   -0.015850    1.274654
     17          1           0        0.408977    2.094552    0.994164
     18          1           0        0.485856   -2.159032    0.755871
     19          1           0        2.454395   -1.659466   -0.324545
     20          1           0        0.194239    0.566898    2.771063
     21          1           0        1.752791    0.860240   -1.154928
 ---------------------------------------------------------------------
 Rotational constants (GHZ):      1.4229800      1.2040946      1.1816273
 Standard basis: 6-31+G(d,p) (6D, 7F)
 There are   259 symmetry adapted basis functions of A   symmetry.
 Integral buffers will be    131072 words long.
 Raffenetti 2 integral format.
 Two-electron integral symmetry is turned on.
   259 basis functions,   422 primitive gaussians,   259 cartesian basis functions
    43 alpha electrons       43 beta electrons
       nuclear repulsion energy       737.3097094026 Hartrees.
 NAtoms=   21 NActive=   21 NUniq=   21 SFac= 1.00D+00 NAtFMM=   60 NAOKFM=F Big=F
 ------------------------------------------------------------------------------
 Polarizable Continuum Model (PCM)
 =================================
 Model                : C-PCM.
 Atomic radii         : SMD-Coulomb.
 Polarization charges : Total charges.
 Charge compensation  : None.
 Solution method      : Matrix inversion.
 Cavity type          : VdW (van der Waals Surface) (Alpha=1.000).
 Cavity algorithm     : GePol (No added spheres)
                        Default sphere list used, NSphG=   21.
                        Lebedev-Laikov grids with approx.  5.0 points / Ang**2.
                        Smoothing algorithm: Karplus/York (Gamma=1.0000).
                        Polarization charges: spherical gaussians, with
                                              point-specific exponents (IZeta= 3).
                        Self-potential: point-specific (ISelfS= 7).
                        Self-field    : sphere-specific E.n sum rule (ISelfD= 2).
 Solvent              : Water, Eps=  78.355300 Eps(inf)=   1.777849
 ------------------------------------------------------------------------------
 ------------------------------------------------------------------------------
 Atomic radii for non-electrostatic terms: SMD-CDS.
 ------------------------------------------------------------------------------
 Nuclear repulsion after PCM non-electrostatic terms =      737.3147657112 Hartrees.
 One-electron integrals computed using PRISM.
 NBasis=   259 RedAO= T  NBF=   259
 NBsUse=   259 1.00D-06 NBFU=   259
 Harris functional with IExCor=  402 diagonalized for initial guess.
 ExpMin= 4.38D-02 ExpMax= 5.48D+03 ExpMxC= 8.25D+02 IAcc=2 IRadAn=         4 AccDes= 0.00D+00
 HarFok:  IExCor=  402 AccDes= 0.00D+00 IRadAn=         4 IDoV= 1
 ScaDFX=  1.000000  1.000000  1.000000  1.000000
 FoFCou: FMM=F IPFlag=           0 FMFlag=      100000 FMFlg1=           0
         NFxFlg=           0 DoJE=T BraDBF=F KetDBF=T FulRan=T
         Omega=  0.000000  0.000000  1.000000  0.000000  0.000000 ICntrl=     500 IOpCl=  0
         NMat0=    1 NMatS0=    1 NMatT0=    0 NMatD0=    1 NMtDS0=    0 NMtDT0=    0
         I1Cent=           4 NGrid=           0.
 Petite list used in FoFCou.
 Initial guess orbital symmetries:
       Occupied  (A) (A) (A) (A) (A) (A) (A) (A) (A) (A) (A) (A)
                 (A) (A) (A) (A) (A) (A) (A) (A) (A) (A) (A) (A)
                 (A) (A) (A) (A) (A) (A) (A) (A) (A) (A) (A) (A)
                 (A) (A) (A) (A) (A) (A) (A)
       Virtual   (A) (A) (A) (A) (A) (A) (A) (A) (A) (A) (A) (A)
                 (A) (A) (A) (A) (A) (A) (A) (A) (A) (A) (A) (A)
                 (A) (A) (A) (A) (A) (A) (A) (A) (A) (A) (A) (A)
                 (A) (A) (A) (A) (A) (A) (A) (A) (A) (A) (A) (A)
                 (A) (A) (A) (A) (A) (A) (A) (A) (A) (A) (A) (A)
                 (A) (A) (A) (A) (A) (A) (A) (A) (A) (A) (A) (A)
                 (A) (A) (A) (A) (A) (A) (A) (A) (A) (A) (A) (A)
                 (A) (A) (A) (A) (A) (A) (A) (A) (A) (A) (A) (A)
                 (A) (A) (A) (A) (A) (A) (A) (A) (A) (A) (A) (A)
                 (A) (A) (A) (A) (A) (A) (A) (A) (A) (A) (A) (A)
                 (A) (A) (A) (A) (A) (A) (A) (A) (A) (A) (A) (A)
                 (A) (A) (A) (A) (A) (A) (A) (A) (A) (A) (A) (A)
                 (A) (A) (A) (A) (A) (A) (A) (A) (A) (A) (A) (A)
                 (A) (A) (A) (A) (A) (A) (A) (A) (A) (A) (A) (A)
                 (A) (A) (A) (A) (A) (A) (A) (A) (A) (A) (A) (A)
                 (A) (A) (A) (A) (A) (A) (A) (A) (A) (A) (A) (A)
                 (A) (A) (A) (A) (A) (A) (A) (A) (A) (A) (A) (A)
                 (A) (A) (A) (A) (A) (A) (A) (A) (A) (A) (A) (A)
 The electronic state of the initial guess is 1-A.
 Requested convergence on RMS density matrix=1.00D-08 within 128 cycles.
 Requested convergence on MAX density matrix=1.00D-06.
 Requested convergence on             energy=1.00D-06.
 No special actions if energy rises.
 Error on total polarization charges =  0.05644
 SCF Done:  E(RB3LYP) =  -610.805280129     A.U. after   12 cycles
             Convg  =    0.5626D-08             -V/T =  2.0090
 SMD-CDS (non-electrostatic) energy       (kcal/mol) =       3.17
 (included in total energy above)

 **********************************************************************

            Population analysis using the SCF density.

 **********************************************************************

 Orbital symmetries:
       Occupied  (A) (A) (A) (A) (A) (A) (A) (A) (A) (A) (A) (A)
                 (A) (A) (A) (A) (A) (A) (A) (A) (A) (A) (A) (A)
                 (A) (A) (A) (A) (A) (A) (A) (A) (A) (A) (A) (A)
                 (A) (A) (A) (A) (A) (A) (A)
       Virtual   (A) (A) (A) (A) (A) (A) (A) (A) (A) (A) (A) (A)
                 (A) (A) (A) (A) (A) (A) (A) (A) (A) (A) (A) (A)
                 (A) (A) (A) (A) (A) (A) (A) (A) (A) (A) (A) (A)
                 (A) (A) (A) (A) (A) (A) (A) (A) (A) (A) (A) (A)
                 (A) (A) (A) (A) (A) (A) (A) (A) (A) (A) (A) (A)
                 (A) (A) (A) (A) (A) (A) (A) (A) (A) (A) (A) (A)
                 (A) (A) (A) (A) (A) (A) (A) (A) (A) (A) (A) (A)
                 (A) (A) (A) (A) (A) (A) (A) (A) (A) (A) (A) (A)
                 (A) (A) (A) (A) (A) (A) (A) (A) (A) (A) (A) (A)
                 (A) (A) (A) (A) (A) (A) (A) (A) (A) (A) (A) (A)
                 (A) (A) (A) (A) (A) (A) (A) (A) (A) (A) (A) (A)
                 (A) (A) (A) (A) (A) (A) (A) (A) (A) (A) (A) (A)
                 (A) (A) (A) (A) (A) (A) (A) (A) (A) (A) (A) (A)
                 (A) (A) (A) (A) (A) (A) (A) (A) (A) (A) (A) (A)
                 (A) (A) (A) (A) (A) (A) (A) (A) (A) (A) (A) (A)
                 (A) (A) (A) (A) (A) (A) (A) (A) (A) (A) (A) (A)
                 (A) (A) (A) (A) (A) (A) (A) (A) (A) (A) (A) (A)
                 (A) (A) (A) (A) (A) (A) (A) (A) (A) (A) (A) (A)
 The electronic state is 1-A.
 Alpha  occ. eigenvalues --  -19.18192 -19.17527 -19.17253 -19.16990 -19.16931
 Alpha  occ. eigenvalues --  -10.29161 -10.25019 -10.24892 -10.24696 -10.24468
 Alpha  occ. eigenvalues --  -10.23851  -1.11202  -1.04752  -1.03480  -1.03396
 Alpha  occ. eigenvalues --   -1.00940  -0.79398  -0.77326  -0.67888  -0.66086
 Alpha  occ. eigenvalues --   -0.62743  -0.58301  -0.55645  -0.53560  -0.52309
 Alpha  occ. eigenvalues --   -0.49487  -0.47457  -0.47110  -0.45813  -0.44259
 Alpha  occ. eigenvalues --   -0.43300  -0.41440  -0.39704  -0.39195  -0.38021
 Alpha  occ. eigenvalues --   -0.36960  -0.35214  -0.33822  -0.31971  -0.30353
 Alpha  occ. eigenvalues --   -0.28811  -0.28179  -0.25736
 Alpha virt. eigenvalues --    0.00813   0.01346   0.02473   0.02869   0.03794
 Alpha virt. eigenvalues --    0.04464   0.05350   0.05693   0.06092   0.08226
 Alpha virt. eigenvalues --    0.08602   0.09595   0.10247   0.10367   0.11498
 Alpha virt. eigenvalues --    0.12633   0.12929   0.13532   0.13915   0.14081
 Alpha virt. eigenvalues --    0.15144   0.16151   0.16466   0.17171   0.17358
 Alpha virt. eigenvalues --    0.17635   0.19187   0.19431   0.20124   0.21022
 Alpha virt. eigenvalues --    0.21416   0.22345   0.22934   0.23450   0.23814
 Alpha virt. eigenvalues --    0.24026   0.24961   0.25545   0.26100   0.26987
 Alpha virt. eigenvalues --    0.28188   0.28314   0.28682   0.29625   0.29888
 Alpha virt. eigenvalues --    0.30988   0.31289   0.31648   0.32012   0.32730
 Alpha virt. eigenvalues --    0.34108   0.34758   0.35511   0.35847   0.36178
 Alpha virt. eigenvalues --    0.36642   0.37538   0.38419   0.40038   0.40854
 Alpha virt. eigenvalues --    0.41467   0.42605   0.43855   0.45098   0.48078
 Alpha virt. eigenvalues --    0.50805   0.63735   0.65807   0.66932   0.68040
 Alpha virt. eigenvalues --    0.70386   0.70796   0.71852   0.74665   0.76153
 Alpha virt. eigenvalues --    0.79236   0.80130   0.81665   0.83731   0.85596
 Alpha virt. eigenvalues --    0.87651   0.91814   0.94771   0.98179   0.99183
 Alpha virt. eigenvalues --    1.00765   1.03650   1.04442   1.05061   1.05631
 Alpha virt. eigenvalues --    1.07425   1.09034   1.09784   1.11678   1.11825
 Alpha virt. eigenvalues --    1.16453   1.20190   1.22211   1.24770   1.26140
 Alpha virt. eigenvalues --    1.26946   1.28645   1.29367   1.29839   1.33018
 Alpha virt. eigenvalues --    1.34886   1.35711   1.36521   1.39322   1.39728
 Alpha virt. eigenvalues --    1.43368   1.44460   1.46829   1.47372   1.49317
 Alpha virt. eigenvalues --    1.51921   1.54997   1.56714   1.57941   1.60124
 Alpha virt. eigenvalues --    1.61627   1.63706   1.66366   1.69070   1.70634
 Alpha virt. eigenvalues --    1.71334   1.72683   1.74857   1.76281   1.77509
 Alpha virt. eigenvalues --    1.79647   1.83758   1.83966   1.86496   1.88729
 Alpha virt. eigenvalues --    1.90081   1.93128   1.94684   1.97914   1.98478
 Alpha virt. eigenvalues --    2.00315   2.02455   2.04884   2.05900   2.08112
 Alpha virt. eigenvalues --    2.10817   2.11715   2.13032   2.15800   2.16704
 Alpha virt. eigenvalues --    2.17663   2.19882   2.21387   2.28126   2.30558
 Alpha virt. eigenvalues --    2.31930   2.36528   2.37068   2.39396   2.40659
 Alpha virt. eigenvalues --    2.45292   2.48926   2.48942   2.49952   2.51318
 Alpha virt. eigenvalues --    2.53534   2.56674   2.59353   2.59940   2.64136
 Alpha virt. eigenvalues --    2.65903   2.67319   2.68300   2.70005   2.71058
 Alpha virt. eigenvalues --    2.72922   2.73400   2.76313   2.77700   2.79491
 Alpha virt. eigenvalues --    2.82276   2.84759   2.86354   2.87632   2.90306
 Alpha virt. eigenvalues --    2.91057   2.95162   2.96550   2.98609   3.03297
 Alpha virt. eigenvalues --    3.04931   3.06842   3.12127   3.17384   3.21376
 Alpha virt. eigenvalues --    3.35435   3.39471   3.43994   3.46621   3.46820
 Alpha virt. eigenvalues --    3.48007   3.52799   3.55162   3.57753   3.60568
 Alpha virt. eigenvalues --    4.26808   4.35455   4.43833   4.46024   4.49378
 Alpha virt. eigenvalues --    4.53114   4.62657   4.81156   4.87859   4.95305
 Alpha virt. eigenvalues --    5.02831
          Condensed to atoms (all electrons):
              1          2          3          4          5          6
     1  C    5.565633  -0.250084  -0.436544  -0.355046   0.331486   0.200611
     2  C   -0.250084   6.837713  -0.448649   0.484869  -0.074605  -0.832396
     3  C   -0.436544  -0.448649   6.716101   0.291908  -1.113630   0.359055
     4  C   -0.355046   0.484869   0.291908   6.523803  -0.597420  -0.474046
     5  C    0.331486  -0.074605  -1.113630  -0.597420   6.976951  -0.210730
     6  C    0.200611  -0.832396   0.359055  -0.474046  -0.210730   6.587604
     7  O    0.000240   0.071300   0.214511  -0.116385  -0.053254  -0.027369
     8  O    0.140492  -0.127788   0.327400   0.040861  -0.180644  -0.009726
     9  O    0.040170  -0.107410  -0.072403  -0.101370   0.122404   0.132857
    10  O    0.019005  -0.050960  -0.040334   0.090410   0.060498  -0.049789
    11  O    0.001629  -0.006688  -0.124849  -0.082611   0.260306   0.014472
    12  H    0.481357  -0.171374   0.011839  -0.042131   0.009581   0.074557
    13  H    0.405923  -0.011540  -0.024067   0.000222   0.010875  -0.006887
    14  H   -0.001810   0.341521   0.018279   0.016689  -0.013935  -0.024159
    15  H    0.007283   0.044405   0.349530   0.022918  -0.024504  -0.035836
    16  H    0.001278  -0.031693   0.017109   0.311829  -0.006871   0.033976
    17  H    0.013447  -0.025729  -0.026263  -0.067177   0.405629   0.030064
    18  H    0.013033   0.008283  -0.043243  -0.036466   0.062965   0.288598
    19  H   -0.004103   0.001955   0.002804  -0.027469  -0.007211   0.045374
    20  H   -0.001787  -0.005313   0.018825   0.055710  -0.066610   0.009434
    21  H    0.003629  -0.016860  -0.028063  -0.045820   0.042559   0.024808
              7          8          9         10         11         12
     1  C    0.000240   0.140492   0.040170   0.019005   0.001629   0.481357
     2  C    0.071300  -0.127788  -0.107410  -0.050960  -0.006688  -0.171374
     3  C    0.214511   0.327400  -0.072403  -0.040334  -0.124849   0.011839
     4  C   -0.116385   0.040861  -0.101370   0.090410  -0.082611  -0.042131
     5  C   -0.053254  -0.180644   0.122404   0.060498   0.260306   0.009581
     6  C   -0.027369  -0.009726   0.132857  -0.049789   0.014472   0.074557
     7  O    8.412871  -0.040789   0.006630   0.007707   0.010731   0.009280
     8  O   -0.040789   8.413503  -0.000729   0.000321   0.007120  -0.043231
     9  O    0.006630  -0.000729   8.408509   0.009396  -0.007848   0.000193
    10  O    0.007707   0.000321   0.009396   8.369862   0.005596  -0.003669
    11  O    0.010731   0.007120  -0.007848   0.005596   8.280869  -0.000022
    12  H    0.009280  -0.043231   0.000193  -0.003669  -0.000022   0.533915
    13  H    0.000013  -0.050141  -0.000178   0.000787   0.000103  -0.039728
    14  H   -0.037270   0.007603   0.004343  -0.000528   0.000282   0.002279
    15  H   -0.043843  -0.045090   0.000851  -0.000322   0.005930  -0.000252
    16  H   -0.002008  -0.000041  -0.015615  -0.037294   0.001957  -0.000040
    17  H    0.009676   0.001110  -0.000854  -0.011173  -0.051961   0.000026
    18  H    0.008147  -0.000327  -0.027386   0.003828  -0.000707   0.000084
    19  H   -0.000320   0.000191   0.239985   0.000200  -0.001026  -0.000010
    20  H    0.000030  -0.003637  -0.000486   0.239855   0.000402   0.000248
    21  H    0.016487  -0.000574   0.009322   0.000083   0.251952  -0.000001
             13         14         15         16         17         18
     1  C    0.405923  -0.001810   0.007283   0.001278   0.013447   0.013033
     2  C   -0.011540   0.341521   0.044405  -0.031693  -0.025729   0.008283
     3  C   -0.024067   0.018279   0.349530   0.017109  -0.026263  -0.043243
     4  C    0.000222   0.016689   0.022918   0.311829  -0.067177  -0.036466
     5  C    0.010875  -0.013935  -0.024504  -0.006871   0.405629   0.062965
     6  C   -0.006887  -0.024159  -0.035836   0.033976   0.030064   0.288598
     7  O    0.000013  -0.037270  -0.043843  -0.002008   0.009676   0.008147
     8  O   -0.050141   0.007603  -0.045090  -0.000041   0.001110  -0.000327
     9  O   -0.000178   0.004343   0.000851  -0.015615  -0.000854  -0.027386
    10  O    0.000787  -0.000528  -0.000322  -0.037294  -0.011173   0.003828
    11  O    0.000103   0.000282   0.005930   0.001957  -0.051961  -0.000707
    12  H   -0.039728   0.002279  -0.000252  -0.000040   0.000026   0.000084
    13  H    0.553774  -0.004120   0.000286   0.000004  -0.000006   0.000083
    14  H   -0.004120   0.518801  -0.000039  -0.000133   0.000022  -0.002289
    15  H    0.000286  -0.000039   0.554193  -0.000161  -0.003258   0.000027
    16  H    0.000004  -0.000133  -0.000161   0.573936  -0.003480  -0.003861
    17  H   -0.000006   0.000022  -0.003258  -0.003480   0.545742  -0.000152
    18  H    0.000083  -0.002289   0.000027  -0.003861  -0.000152   0.564977
    19  H    0.000005   0.000044   0.000001   0.004260  -0.000005  -0.007246
    20  H   -0.000013   0.000012  -0.000015  -0.005690   0.004823  -0.000014
    21  H    0.000000   0.000043  -0.000645  -0.001502   0.005947  -0.000032
             19         20         21
     1  C   -0.004103  -0.001787   0.003629
     2  C    0.001955  -0.005313  -0.016860
     3  C    0.002804   0.018825  -0.028063
     4  C   -0.027469   0.055710  -0.045820
     5  C   -0.007211  -0.066610   0.042559
     6  C    0.045374   0.009434   0.024808
     7  O   -0.000320   0.000030   0.016487
     8  O    0.000191  -0.003637  -0.000574
     9  O    0.239985  -0.000486   0.009322
    10  O    0.000200   0.239855   0.000083
    11  O   -0.001026   0.000402   0.251952
    12  H   -0.000010   0.000248  -0.000001
    13  H    0.000005  -0.000013   0.000000
    14  H    0.000044   0.000012   0.000043
    15  H    0.000001  -0.000015  -0.000645
    16  H    0.004260  -0.005690  -0.001502
    17  H   -0.000005   0.004823   0.005947
    18  H   -0.007246  -0.000014  -0.000032
    19  H    0.334256  -0.000023  -0.001070
    20  H   -0.000023   0.340187   0.000020
    21  H   -0.001070   0.000020   0.333627
 Mulliken atomic charges:
              1
     1  C   -0.175843
     2  C    0.371041
     3  C    0.030681
     4  C    0.106724
     5  C    0.066161
     6  C   -0.130473
     7  O   -0.446382
     8  O   -0.435885
     9  O   -0.640380
    10  O   -0.613478
    11  O   -0.565635
    12  H    0.177101
    13  H    0.164608
    14  H    0.174365
    15  H    0.168540
    16  H    0.164040
    17  H    0.173572
    18  H    0.171698
    19  H    0.419411
    20  H    0.414043
    21  H    0.406091
 Sum of Mulliken atomic charges =   0.00000
 Mulliken charges with hydrogens summed into heavy atoms:
              1
     1  C    0.165866
     2  C    0.545407
     3  C    0.199222
     4  C    0.270764
     5  C    0.239733
     6  C    0.041225
     7  O   -0.446382
     8  O   -0.435885
     9  O   -0.220969
    10  O   -0.199436
    11  O   -0.159545
 Sum of Mulliken charges with hydrogens summed into heavy atoms =   0.00000
 Electronic spatial extent (au):  <R**2>=           1336.6400
 Charge=              0.0000 electrons
 Dipole moment (field-independent basis, Debye):
    X=              1.1981    Y=             -2.6311    Z=              3.1423  Tot=              4.2699
 Quadrupole moment (field-independent basis, Debye-Ang):
   XX=            -64.0357   YY=            -62.1606   ZZ=            -68.1251
   XY=             -1.9457   XZ=              5.8101   YZ=              3.7233
 Traceless Quadrupole moment (field-independent basis, Debye-Ang):
   XX=              0.7381   YY=              2.6132   ZZ=             -3.3513
   XY=             -1.9457   XZ=              5.8101   YZ=              3.7233
 Octapole moment (field-independent basis, Debye-Ang**2):
  XXX=             21.2756  YYY=            -10.4719  ZZZ=             18.5220  XYY=             -8.6595
  XXY=            -30.3216  XXZ=              1.3645  XZZ=              4.5797  YZZ=             16.7491
  YYZ=              7.2757  XYZ=              0.6354
 Hexadecapole moment (field-independent basis, Debye-Ang**3):
 XXXX=           -622.5269 YYYY=           -514.0679 ZZZZ=           -452.8703 XXXY=            -30.9262
 XXXZ=              5.5562 YYYX=            -35.7331 YYYZ=              6.3546 ZZZX=             -0.0057
 ZZZY=             39.9622 XXYY=           -201.9413 XXZZ=           -188.4048 YYZZ=           -160.1055
 XXYZ=             -4.6101 YYXZ=             21.5305 ZZXY=             10.4255
 N-N= 7.373147657112D+02 E-N=-2.904964872131D+03  KE= 6.053535796868D+02

 Test job not archived.
 1\1\GINC-COMPUTE-10-1\SP\RB3LYP\6-31+G(d,p)\C6H10O5\ASAROTTI.IQUIR\16-
 Apr-2019\0\\# B3LYP/6-31+G** test scrf=(pcm,solvent=water,smd,dovacuum
 )\\comment\\0,1\C,0,1.931893,0.716047,0.104087\C,0,0.682645,1.07995,-0
 .715398\C,0,0.745874,-1.131345,-0.575642\C,0,-0.85312,0.041315,1.03401
 2\C,0,-0.530819,-1.274277,0.277632\C,0,-0.58828,1.265336,0.125531\O,0,
 0.530876,-0.101401,-1.527168\O,0,1.864325,-0.721918,0.19914\O,0,-1.653
 956,1.416181,-0.817983\O,0,-0.0869,0.224487,2.219252\O,0,-1.61576,-1.6
 31423,-0.573279\H,0,1.937303,1.148912,1.10554\H,0,2.846188,0.995566,-0
 .430114\H,0,0.824795,1.930702,-1.383932\H,0,0.977212,-2.057403,-1.1088
 05\H,0,-1.927078,0.015851,1.274654\H,0,-0.408978,-2.094552,0.994164\H,
 0,-0.485855,2.159032,0.755871\H,0,-2.454394,1.659467,-0.324545\H,0,-0.
 194239,-0.566898,2.771063\H,0,-1.752791,-0.860239,-1.154928\\Version=E
 M64L-G09RevC.01\State=1-A\HF=-610.8052801\RMSD=5.626e-09\Dipole=-0.471
 3687,1.0351399,1.2362696\Quadrupole=0.5487566,1.9428479,-2.4916045,-1.
 4465545,-4.3196969,-2.7681867\PG=C01 [X(C6H10O5)]\\@


 THE ONLY EXISTING THINGS ARE ATOMS AND EMPTY SPACE;
 ALL ELSE IS MERE OPINION. -- DEMOCRITUS OF ABDERA D. 370 B.C.
 EXPERIMENTS ARE THE ONLY MEANS OF KNOWLEDGE AT OUR DISPOSAL
 THE REST IS POETRY, IMAGINATION. -- MAX PLANCK
 Job cpu time:  0 days  0 hours 15 minutes 11.9 seconds.
 File lengths (MBytes):  RWF=     56 Int=      0 D2E=      0 Chk=      4 Scr=      1
 Normal termination of Gaussian 09 at Tue Apr 16 01:34:28 2019.
