 Entering Gaussian System, Link 0=g09
 Input=/home/asarotti.iquir/SCF3/01_RSR_Levo24_OPTB_energy_b3lyp_smd.gjc
 Output=/home/asarotti.iquir/SCF3/01_RSR_Levo24_OPTB_energy_b3lyp_smd.log
 Initial command:
 /share/apps/Gaussian09/EM64T.SSE4.2-enabled/g09/l1.exe /tmp/Gau-23355.inp -scrdir=/tmp/
 Entering Link 1 = /share/apps/Gaussian09/EM64T.SSE4.2-enabled/g09/l1.exe PID=     23356.
  
 Copyright (c) 1988,1990,1992,1993,1995,1998,2003,2009,2011,
            Gaussian, Inc.  All Rights Reserved.
  
 This is part of the Gaussian(R) 09 program.  It is based on
 the Gaussian(R) 03 system (copyright 2003, Gaussian, Inc.),
 the Gaussian(R) 98 system (copyright 1998, Gaussian, Inc.),
 the Gaussian(R) 94 system (copyright 1995, Gaussian, Inc.),
 the Gaussian 92(TM) system (copyright 1992, Gaussian, Inc.),
 the Gaussian 90(TM) system (copyright 1990, Gaussian, Inc.),
 the Gaussian 88(TM) system (copyright 1988, Gaussian, Inc.),
 the Gaussian 86(TM) system (copyright 1986, Carnegie Mellon
 University), and the Gaussian 82(TM) system (copyright 1983,
 Carnegie Mellon University). Gaussian is a federally registered
 trademark of Gaussian, Inc.
  
 This software contains proprietary and confidential information,
 including trade secrets, belonging to Gaussian, Inc.
  
 This software is provided under written license and may be
 used, copied, transmitted, or stored only in accord with that
 written license.
  
 The following legend is applicable only to US Government
 contracts under FAR:
  
                    RESTRICTED RIGHTS LEGEND
  
 Use, reproduction and disclosure by the US Government is
 subject to restrictions as set forth in subparagraphs (a)
 and (c) of the Commercial Computer Software - Restricted
 Rights clause in FAR 52.227-19.
  
 Gaussian, Inc.
 340 Quinnipiac St., Bldg. 40, Wallingford CT 06492
  
  
 ---------------------------------------------------------------
 Warning -- This program may not be used in any manner that
 competes with the business of Gaussian, Inc. or will provide
 assistance to any competitor of Gaussian, Inc.  The licensee
 of this program is prohibited from giving any competitor of
 Gaussian, Inc. access to this program.  By using this program,
 the user acknowledges that Gaussian, Inc. is engaged in the
 business of creating and licensing software in the field of
 computational chemistry and represents and warrants to the
 licensee that it is not a competitor of Gaussian, Inc. and that
 it will not use this program in any manner prohibited above.
 ---------------------------------------------------------------
  

 Cite this work as:
 Gaussian 09, Revision C.01,
 M. J. Frisch, G. W. Trucks, H. B. Schlegel, G. E. Scuseria, 
 M. A. Robb, J. R. Cheeseman, G. Scalmani, V. Barone, B. Mennucci, 
 G. A. Petersson, H. Nakatsuji, M. Caricato, X. Li, H. P. Hratchian, 
 A. F. Izmaylov, J. Bloino, G. Zheng, J. L. Sonnenberg, M. Hada, 
 M. Ehara, K. Toyota, R. Fukuda, J. Hasegawa, M. Ishida, T. Nakajima, 
 Y. Honda, O. Kitao, H. Nakai, T. Vreven, J. A. Montgomery, Jr., 
 J. E. Peralta, F. Ogliaro, M. Bearpark, J. J. Heyd, E. Brothers, 
 K. N. Kudin, V. N. Staroverov, T. Keith, R. Kobayashi, J. Normand, 
 K. Raghavachari, A. Rendell, J. C. Burant, S. S. Iyengar, J. Tomasi, 
 M. Cossi, N. Rega, J. M. Millam, M. Klene, J. E. Knox, J. B. Cross, 
 V. Bakken, C. Adamo, J. Jaramillo, R. Gomperts, R. E. Stratmann, 
 O. Yazyev, A. J. Austin, R. Cammi, C. Pomelli, J. W. Ochterski, 
 R. L. Martin, K. Morokuma, V. G. Zakrzewski, G. A. Voth, 
 P. Salvador, J. J. Dannenberg, S. Dapprich, A. D. Daniels, 
 O. Farkas, J. B. Foresman, J. V. Ortiz, J. Cioslowski, 
 and D. J. Fox, Gaussian, Inc., Wallingford CT, 2010.
 
 ******************************************
 Gaussian 09:  EM64L-G09RevC.01 23-Sep-2011
                15-Apr-2019 
 ******************************************
 %nprocshared=4
 Will use up to    4 processors via shared memory.
 -----------------------------------------------------------
 # B3LYP/6-31+G** test scrf=(pcm,solvent=water,smd,dovacuum)
 -----------------------------------------------------------
 1/38=1/1;
 2/12=2,17=6,18=5,40=1/2;
 3/5=1,6=6,7=111,11=2,16=1,25=1,30=1,70=32101,72=1,74=-5/1,2,3;
 4//1;
 5/5=2,38=5,53=1/2;
 6/7=2,8=2,9=2,10=2,28=1/1;
 99/5=1,9=1/99;
 -------
 comment
 -------
 Charge =  0 Multiplicity = 1
 Symbolic Z-Matrix:
 6                     2.02372   0.51324   0.01076 
 6                     0.75211   1.17862  -0.51458 
 6                     0.51198  -1.00008  -0.88333 
 6                    -0.72263  -0.12868   1.12492 
 6                    -0.70883  -1.22354   0.03685 
 6                    -0.41189   1.25757   0.49186 
 8                     0.38568   0.23441  -1.54888 
 8                     1.6992   -0.89951  -0.06876 
 8                    -1.56923   1.76343  -0.16782 
 8                     0.15664  -0.45941   2.19595 
 8                    -1.92531  -1.08871  -0.69813 
 1                     2.27038   0.76409   1.04444 
 1                     2.88028   0.72544  -0.63637 
 1                     0.91949   2.14589  -0.99062 
 1                     0.64012  -1.79038  -1.62915 
 1                    -1.72959  -0.07153   1.54986 
 1                    -0.64125  -2.20965   0.51633 
 1                    -0.16654   1.96244   1.2927 
 1                    -1.85254   1.05656  -0.77827 
 1                     0.94082  -0.87139   1.79007 
 1                    -1.90382  -1.69591  -1.4567 
 
                          Input orientation:                          
 ---------------------------------------------------------------------
 Center     Atomic      Atomic             Coordinates (Angstroms)
 Number     Number       Type             X           Y           Z
 ---------------------------------------------------------------------
      1          6           0        2.023719    0.513244    0.010755
      2          6           0        0.752112    1.178624   -0.514583
      3          6           0        0.511982   -1.000077   -0.883327
      4          6           0       -0.722626   -0.128681    1.124924
      5          6           0       -0.708833   -1.223542    0.036848
      6          6           0       -0.411894    1.257565    0.491856
      7          8           0        0.385675    0.234410   -1.548879
      8          8           0        1.699203   -0.899514   -0.068764
      9          8           0       -1.569227    1.763428   -0.167820
     10          8           0        0.156643   -0.459408    2.195953
     11          8           0       -1.925309   -1.088711   -0.698129
     12          1           0        2.270375    0.764087    1.044440
     13          1           0        2.880282    0.725439   -0.636371
     14          1           0        0.919494    2.145894   -0.990617
     15          1           0        0.640117   -1.790376   -1.629148
     16          1           0       -1.729589   -0.071527    1.549864
     17          1           0       -0.641252   -2.209649    0.516326
     18          1           0       -0.166542    1.962441    1.292701
     19          1           0       -1.852535    1.056559   -0.778273
     20          1           0        0.940816   -0.871394    1.790066
     21          1           0       -1.903816   -1.695906   -1.456703
 ---------------------------------------------------------------------
                    Distance matrix (angstroms):
                    1          2          3          4          5
     1  C    0.000000
     2  C    1.528298   0.000000
     3  C    2.318377   2.222695   0.000000
     4  C    3.032466   2.563568   2.513297   0.000000
     5  C    3.237892   2.865107   1.545007   1.543639   0.000000
     6  C    2.591849   1.540799   2.800290   1.555316   2.539901
     7  O    2.278902   1.447613   1.408145   2.917086   2.416216
     8  O    1.451730   2.326885   1.443302   2.807905   2.432033
     9  O    3.808426   2.418854   3.532753   2.442948   3.115150
    10  O    3.034323   3.222536   3.146515   1.424639   2.448404
    11  O    4.320139   3.513272   2.445923   2.385713   1.427650
    12  H    1.091909   2.215291   3.149684   3.124351   3.720429
    13  H    1.094303   2.179293   2.940619   4.100320   4.139263
    14  H    2.210793   1.090980   3.174068   3.513654   3.880751
    15  H    3.148063   3.173288   1.094185   3.493310   2.217320
    16  H    4.098553   3.461742   3.436170   1.094447   2.158309
    17  H    3.843412   3.805868   2.179918   2.169664   1.098578
    18  H    2.922465   2.173608   3.737915   2.170293   3.467237
    19  H    3.992881   2.620805   3.135559   2.510706   2.677935
    20  H    2.501170   3.090241   2.710625   1.939349   2.432925
    21  H    4.739125   4.025477   2.578569   3.242869   1.970230
                    6          7          8          9         10
     6  C    0.000000
     7  O    2.418173   0.000000
     8  O    3.069856   2.280763   0.000000
     9  O    1.424952   2.840222   4.217073   0.000000
    10  O    2.484990   3.815443   2.775271   3.675194   0.000000
    11  O    3.035045   2.795545   3.683610   2.922793   3.620256
    12  H    2.782703   3.249301   2.081593   4.148590   2.700145
    13  H    3.520579   2.701267   2.087486   4.592939   4.104160
    14  H    2.181616   2.061647   3.276014   2.648963   4.186140
    15  H    3.859447   2.042288   2.085688   4.432404   4.078801
    16  H    2.149927   3.764326   3.880996   2.518574   2.031195
    17  H    3.474878   3.360517   2.745271   4.136972   2.553650
    18  H    1.094715   3.371292   3.677686   2.034761   2.604931
    19  H    1.931082   2.505862   4.116366   0.976002   3.896277
    20  H    2.836836   3.560834   2.007782   4.132302   0.974374
    21  H    3.840014   2.996062   3.942380   3.706772   4.372221
                   11         12         13         14         15
    11  O    0.000000
    12  H    4.906442   0.000000
    13  H    5.136989   1.788465   0.000000
    14  H    4.317537   2.806373   2.447013   0.000000
    15  H    2.817897   4.041175   3.511876   3.997499   0.000000
    16  H    2.475165   4.117453   5.163883   4.288198   4.321581
    17  H    2.092894   4.195186   4.727013   4.865959   2.533921
    18  H    4.045515   2.726949   3.812431   2.535088   4.824058
    19  H    2.148000   4.517323   4.746507   2.985948   3.878446
    20  H    3.801712   2.235729   3.492707   4.103252   3.553304
    21  H    0.971896   5.452628   5.424339   4.790380   2.551521
                   16         17         18         19         20
    16  H    0.000000
    17  H    2.612325   0.000000
    18  H    2.578037   4.270181   0.000000
    19  H    2.589964   3.716357   2.819952   0.000000
    20  H    2.797954   2.432340   3.082894   4.256310   0.000000
    21  H    3.421755   2.398092   4.894982   2.835306   4.394685
                   21
    21  H    0.000000
 Stoichiometry    C6H10O5
 Framework group  C1[X(C6H10O5)]
 Deg. of freedom    57
 Full point group                 C1      NOp   1
 Largest Abelian subgroup         C1      NOp   1
 Largest concise Abelian subgroup C1      NOp   1
                         Standard orientation:                         
 ---------------------------------------------------------------------
 Center     Atomic      Atomic             Coordinates (Angstroms)
 Number     Number       Type             X           Y           Z
 ---------------------------------------------------------------------
      1          6           0        2.023719    0.513243    0.010755
      2          6           0        0.752113    1.178624   -0.514583
      3          6           0        0.511982   -1.000077   -0.883327
      4          6           0       -0.722626   -0.128681    1.124924
      5          6           0       -0.708833   -1.223542    0.036848
      6          6           0       -0.411893    1.257565    0.491856
      7          8           0        0.385675    0.234410   -1.548879
      8          8           0        1.699203   -0.899515   -0.068764
      9          8           0       -1.569226    1.763429   -0.167820
     10          8           0        0.156643   -0.459408    2.195953
     11          8           0       -1.925309   -1.088710   -0.698129
     12          1           0        2.270375    0.764086    1.044440
     13          1           0        2.880282    0.725438   -0.636371
     14          1           0        0.919495    2.145893   -0.990617
     15          1           0        0.640116   -1.790376   -1.629148
     16          1           0       -1.729589   -0.071526    1.549864
     17          1           0       -0.641253   -2.209649    0.516326
     18          1           0       -0.166541    1.962441    1.292701
     19          1           0       -1.852534    1.056560   -0.778273
     20          1           0        0.940816   -0.871395    1.790066
     21          1           0       -1.903817   -1.695905   -1.456703
 ---------------------------------------------------------------------
 Rotational constants (GHZ):      1.4569398      1.2119253      1.1873526
 Standard basis: 6-31+G(d,p) (6D, 7F)
 There are   259 symmetry adapted basis functions of A   symmetry.
 Integral buffers will be    131072 words long.
 Raffenetti 2 integral format.
 Two-electron integral symmetry is turned on.
   259 basis functions,   422 primitive gaussians,   259 cartesian basis functions
    43 alpha electrons       43 beta electrons
       nuclear repulsion energy       740.4769601873 Hartrees.
 NAtoms=   21 NActive=   21 NUniq=   21 SFac= 1.00D+00 NAtFMM=   60 NAOKFM=F Big=F
 ------------------------------------------------------------------------------
 Polarizable Continuum Model (PCM)
 =================================
 Model                : C-PCM.
 Atomic radii         : SMD-Coulomb.
 Polarization charges : Total charges.
 Charge compensation  : None.
 Solution method      : Matrix inversion.
 Cavity type          : VdW (van der Waals Surface) (Alpha=1.000).
 Cavity algorithm     : GePol (No added spheres)
                        Default sphere list used, NSphG=   21.
                        Lebedev-Laikov grids with approx.  5.0 points / Ang**2.
                        Smoothing algorithm: Karplus/York (Gamma=1.0000).
                        Polarization charges: spherical gaussians, with
                                              point-specific exponents (IZeta= 3).
                        Self-potential: point-specific (ISelfS= 7).
                        Self-field    : sphere-specific E.n sum rule (ISelfD= 2).
 Solvent              : Water, Eps=  78.355300 Eps(inf)=   1.777849
 ------------------------------------------------------------------------------
 ------------------------------------------------------------------------------
 Atomic radii for non-electrostatic terms: SMD-CDS.
 ------------------------------------------------------------------------------
 Nuclear repulsion after PCM non-electrostatic terms =      740.4815633480 Hartrees.
 One-electron integrals computed using PRISM.
 NBasis=   259 RedAO= T  NBF=   259
 NBsUse=   259 1.00D-06 NBFU=   259
 Harris functional with IExCor=  402 diagonalized for initial guess.
 ExpMin= 4.38D-02 ExpMax= 5.48D+03 ExpMxC= 8.25D+02 IAcc=2 IRadAn=         4 AccDes= 0.00D+00
 HarFok:  IExCor=  402 AccDes= 0.00D+00 IRadAn=         4 IDoV= 1
 ScaDFX=  1.000000  1.000000  1.000000  1.000000
 FoFCou: FMM=F IPFlag=           0 FMFlag=      100000 FMFlg1=           0
         NFxFlg=           0 DoJE=T BraDBF=F KetDBF=T FulRan=T
         Omega=  0.000000  0.000000  1.000000  0.000000  0.000000 ICntrl=     500 IOpCl=  0
         NMat0=    1 NMatS0=    1 NMatT0=    0 NMatD0=    1 NMtDS0=    0 NMtDT0=    0
         I1Cent=           4 NGrid=           0.
 Petite list used in FoFCou.
 Initial guess orbital symmetries:
       Occupied  (A) (A) (A) (A) (A) (A) (A) (A) (A) (A) (A) (A)
                 (A) (A) (A) (A) (A) (A) (A) (A) (A) (A) (A) (A)
                 (A) (A) (A) (A) (A) (A) (A) (A) (A) (A) (A) (A)
                 (A) (A) (A) (A) (A) (A) (A)
       Virtual   (A) (A) (A) (A) (A) (A) (A) (A) (A) (A) (A) (A)
                 (A) (A) (A) (A) (A) (A) (A) (A) (A) (A) (A) (A)
                 (A) (A) (A) (A) (A) (A) (A) (A) (A) (A) (A) (A)
                 (A) (A) (A) (A) (A) (A) (A) (A) (A) (A) (A) (A)
                 (A) (A) (A) (A) (A) (A) (A) (A) (A) (A) (A) (A)
                 (A) (A) (A) (A) (A) (A) (A) (A) (A) (A) (A) (A)
                 (A) (A) (A) (A) (A) (A) (A) (A) (A) (A) (A) (A)
                 (A) (A) (A) (A) (A) (A) (A) (A) (A) (A) (A) (A)
                 (A) (A) (A) (A) (A) (A) (A) (A) (A) (A) (A) (A)
                 (A) (A) (A) (A) (A) (A) (A) (A) (A) (A) (A) (A)
                 (A) (A) (A) (A) (A) (A) (A) (A) (A) (A) (A) (A)
                 (A) (A) (A) (A) (A) (A) (A) (A) (A) (A) (A) (A)
                 (A) (A) (A) (A) (A) (A) (A) (A) (A) (A) (A) (A)
                 (A) (A) (A) (A) (A) (A) (A) (A) (A) (A) (A) (A)
                 (A) (A) (A) (A) (A) (A) (A) (A) (A) (A) (A) (A)
                 (A) (A) (A) (A) (A) (A) (A) (A) (A) (A) (A) (A)
                 (A) (A) (A) (A) (A) (A) (A) (A) (A) (A) (A) (A)
                 (A) (A) (A) (A) (A) (A) (A) (A) (A) (A) (A) (A)
 The electronic state of the initial guess is 1-A.
 Requested convergence on RMS density matrix=1.00D-08 within 128 cycles.
 Requested convergence on MAX density matrix=1.00D-06.
 Requested convergence on             energy=1.00D-06.
 No special actions if energy rises.
 Error on total polarization charges =  0.05693
 SCF Done:  E(RB3LYP) =  -610.804611947     A.U. after   12 cycles
             Convg  =    0.7239D-08             -V/T =  2.0090
 SMD-CDS (non-electrostatic) energy       (kcal/mol) =       2.89
 (included in total energy above)

 **********************************************************************

            Population analysis using the SCF density.

 **********************************************************************

 Orbital symmetries:
       Occupied  (A) (A) (A) (A) (A) (A) (A) (A) (A) (A) (A) (A)
                 (A) (A) (A) (A) (A) (A) (A) (A) (A) (A) (A) (A)
                 (A) (A) (A) (A) (A) (A) (A) (A) (A) (A) (A) (A)
                 (A) (A) (A) (A) (A) (A) (A)
       Virtual   (A) (A) (A) (A) (A) (A) (A) (A) (A) (A) (A) (A)
                 (A) (A) (A) (A) (A) (A) (A) (A) (A) (A) (A) (A)
                 (A) (A) (A) (A) (A) (A) (A) (A) (A) (A) (A) (A)
                 (A) (A) (A) (A) (A) (A) (A) (A) (A) (A) (A) (A)
                 (A) (A) (A) (A) (A) (A) (A) (A) (A) (A) (A) (A)
                 (A) (A) (A) (A) (A) (A) (A) (A) (A) (A) (A) (A)
                 (A) (A) (A) (A) (A) (A) (A) (A) (A) (A) (A) (A)
                 (A) (A) (A) (A) (A) (A) (A) (A) (A) (A) (A) (A)
                 (A) (A) (A) (A) (A) (A) (A) (A) (A) (A) (A) (A)
                 (A) (A) (A) (A) (A) (A) (A) (A) (A) (A) (A) (A)
                 (A) (A) (A) (A) (A) (A) (A) (A) (A) (A) (A) (A)
                 (A) (A) (A) (A) (A) (A) (A) (A) (A) (A) (A) (A)
                 (A) (A) (A) (A) (A) (A) (A) (A) (A) (A) (A) (A)
                 (A) (A) (A) (A) (A) (A) (A) (A) (A) (A) (A) (A)
                 (A) (A) (A) (A) (A) (A) (A) (A) (A) (A) (A) (A)
                 (A) (A) (A) (A) (A) (A) (A) (A) (A) (A) (A) (A)
                 (A) (A) (A) (A) (A) (A) (A) (A) (A) (A) (A) (A)
                 (A) (A) (A) (A) (A) (A) (A) (A) (A) (A) (A) (A)
 The electronic state is 1-A.
 Alpha  occ. eigenvalues --  -19.18515 -19.18393 -19.17732 -19.16755 -19.16684
 Alpha  occ. eigenvalues --  -10.29729 -10.25034 -10.25007 -10.24789 -10.24582
 Alpha  occ. eigenvalues --  -10.24341  -1.11553  -1.04818  -1.03657  -1.03462
 Alpha  occ. eigenvalues --   -1.01095  -0.79426  -0.77758  -0.67886  -0.66247
 Alpha  occ. eigenvalues --   -0.63259  -0.58949  -0.56278  -0.53288  -0.51926
 Alpha  occ. eigenvalues --   -0.49802  -0.47746  -0.46988  -0.45941  -0.44371
 Alpha  occ. eigenvalues --   -0.44144  -0.42147  -0.39929  -0.39377  -0.37377
 Alpha  occ. eigenvalues --   -0.36485  -0.36237  -0.34439  -0.32211  -0.31011
 Alpha  occ. eigenvalues --   -0.29271  -0.27114  -0.26722
 Alpha virt. eigenvalues --    0.00820   0.01310   0.02746   0.02998   0.03814
 Alpha virt. eigenvalues --    0.04659   0.05212   0.05462   0.06021   0.08275
 Alpha virt. eigenvalues --    0.08675   0.09774   0.10098   0.10593   0.11611
 Alpha virt. eigenvalues --    0.12205   0.12549   0.13612   0.13849   0.14048
 Alpha virt. eigenvalues --    0.14794   0.15967   0.16936   0.17212   0.17489
 Alpha virt. eigenvalues --    0.17844   0.18762   0.19560   0.19712   0.20659
 Alpha virt. eigenvalues --    0.20856   0.21795   0.22702   0.22829   0.23044
 Alpha virt. eigenvalues --    0.24274   0.25098   0.25462   0.26363   0.26901
 Alpha virt. eigenvalues --    0.27165   0.28181   0.28710   0.29314   0.29939
 Alpha virt. eigenvalues --    0.30473   0.31029   0.31605   0.32672   0.33424
 Alpha virt. eigenvalues --    0.33743   0.34457   0.34868   0.35761   0.36401
 Alpha virt. eigenvalues --    0.36854   0.37582   0.38777   0.38964   0.39399
 Alpha virt. eigenvalues --    0.41721   0.42795   0.45231   0.45329   0.47445
 Alpha virt. eigenvalues --    0.52100   0.63683   0.65750   0.66267   0.67928
 Alpha virt. eigenvalues --    0.68883   0.70343   0.70858   0.75039   0.75652
 Alpha virt. eigenvalues --    0.78526   0.80455   0.81452   0.82764   0.86233
 Alpha virt. eigenvalues --    0.87439   0.91709   0.94646   0.97213   0.99283
 Alpha virt. eigenvalues --    1.01755   1.02869   1.04454   1.04688   1.06672
 Alpha virt. eigenvalues --    1.08513   1.09131   1.09731   1.11427   1.12908
 Alpha virt. eigenvalues --    1.18398   1.19347   1.23061   1.23786   1.25760
 Alpha virt. eigenvalues --    1.26439   1.27096   1.28147   1.29827   1.31438
 Alpha virt. eigenvalues --    1.33417   1.36713   1.37742   1.39693   1.41705
 Alpha virt. eigenvalues --    1.42991   1.44345   1.46075   1.48174   1.49462
 Alpha virt. eigenvalues --    1.53185   1.53586   1.56220   1.57177   1.61431
 Alpha virt. eigenvalues --    1.63768   1.64977   1.66111   1.66814   1.68772
 Alpha virt. eigenvalues --    1.71006   1.73845   1.74343   1.76447   1.77974
 Alpha virt. eigenvalues --    1.78400   1.82978   1.83913   1.84276   1.87305
 Alpha virt. eigenvalues --    1.90511   1.93557   1.95286   1.95915   1.96997
 Alpha virt. eigenvalues --    2.00722   2.02364   2.04715   2.05617   2.06840
 Alpha virt. eigenvalues --    2.09486   2.10275   2.12259   2.15307   2.16728
 Alpha virt. eigenvalues --    2.18910   2.21079   2.23745   2.27382   2.28887
 Alpha virt. eigenvalues --    2.32897   2.35801   2.37866   2.40259   2.41781
 Alpha virt. eigenvalues --    2.43949   2.45635   2.49296   2.50203   2.51004
 Alpha virt. eigenvalues --    2.51740   2.54591   2.59174   2.62880   2.64186
 Alpha virt. eigenvalues --    2.65852   2.66579   2.69563   2.69827   2.70298
 Alpha virt. eigenvalues --    2.71831   2.72454   2.74173   2.76643   2.79985
 Alpha virt. eigenvalues --    2.82944   2.85506   2.86655   2.89123   2.89937
 Alpha virt. eigenvalues --    2.91135   2.95354   2.97646   2.99085   3.02876
 Alpha virt. eigenvalues --    3.04203   3.06457   3.08440   3.17936   3.22642
 Alpha virt. eigenvalues --    3.34270   3.39474   3.44253   3.46514   3.48607
 Alpha virt. eigenvalues --    3.48816   3.51650   3.55437   3.60014   3.61346
 Alpha virt. eigenvalues --    4.28277   4.32332   4.42728   4.48137   4.52525
 Alpha virt. eigenvalues --    4.54263   4.61273   4.79977   4.86087   4.94972
 Alpha virt. eigenvalues --    5.04778
          Condensed to atoms (all electrons):
              1          2          3          4          5          6
     1  C    5.644906  -0.341206  -0.274175  -0.348794   0.216938   0.243488
     2  C   -0.341206   7.006692  -0.633336   0.516705   0.105592  -0.918693
     3  C   -0.274175  -0.633336   6.627958   0.248210  -1.149774   0.390917
     4  C   -0.348794   0.516705   0.248210   6.554821  -0.502006  -0.543056
     5  C    0.216938   0.105592  -1.149774  -0.502006   7.107780  -0.209142
     6  C    0.243488  -0.918693   0.390917  -0.543056  -0.209142   6.476070
     7  O    0.021968   0.052921   0.259130  -0.109983  -0.051335  -0.044579
     8  O    0.069150  -0.051998   0.293618   0.044559  -0.242687  -0.005877
     9  O    0.016913  -0.145735  -0.028744  -0.090441   0.028617   0.294468
    10  O    0.010099   0.007180  -0.021930   0.249959  -0.040162  -0.125212
    11  O    0.015622  -0.075582  -0.010174  -0.121357   0.108489   0.080293
    12  H    0.467773  -0.139275   0.018855  -0.027843   0.002879   0.044494
    13  H    0.397158  -0.004897  -0.031012  -0.000972   0.011893  -0.004110
    14  H    0.003573   0.320110   0.022877   0.010848  -0.018547  -0.004776
    15  H   -0.002784   0.044407   0.321072   0.014952   0.012536  -0.023056
    16  H    0.002713  -0.001416   0.018118   0.365755  -0.037854  -0.015936
    17  H    0.015336  -0.029377   0.015133  -0.072435   0.337421   0.024279
    18  H    0.019087  -0.035088  -0.042172  -0.104599   0.074798   0.404883
    19  H    0.000375  -0.021053  -0.028835  -0.059583   0.063985   0.028865
    20  H   -0.005322  -0.006871   0.024948  -0.006564  -0.033188   0.003336
    21  H   -0.002423   0.018169  -0.048173   0.026610   0.039226  -0.023717
              7          8          9         10         11         12
     1  C    0.021968   0.069150   0.016913   0.010099   0.015622   0.467773
     2  C    0.052921  -0.051998  -0.145735   0.007180  -0.075582  -0.139275
     3  C    0.259130   0.293618  -0.028744  -0.021930  -0.010174   0.018855
     4  C   -0.109983   0.044559  -0.090441   0.249959  -0.121357  -0.027843
     5  C   -0.051335  -0.242687   0.028617  -0.040162   0.108489   0.002879
     6  C   -0.044579  -0.005877   0.294468  -0.125212   0.080293   0.044494
     7  O    8.406333  -0.065418   0.013524   0.002400   0.008703   0.010100
     8  O   -0.065418   8.532342   0.000967  -0.002513   0.015652  -0.050598
     9  O    0.013524   0.000967   8.296781   0.008432  -0.015867   0.000243
    10  O    0.002400  -0.002513   0.008432   8.265490   0.009314   0.002023
    11  O    0.008703   0.015652  -0.015867   0.009314   8.389810   0.000042
    12  H    0.010100  -0.050598   0.000243   0.002023   0.000042   0.520573
    13  H   -0.002628  -0.039807  -0.000242  -0.000234   0.000066  -0.035926
    14  H   -0.037702   0.008249   0.003979  -0.000169   0.000868   0.001762
    15  H   -0.043503  -0.038465   0.000209  -0.000429  -0.009027  -0.000225
    16  H   -0.001816   0.001286   0.002098  -0.051209   0.000815  -0.000041
    17  H    0.008029   0.002030  -0.000596   0.003269  -0.027537   0.000021
    18  H    0.011248  -0.002132  -0.049148   0.003106  -0.001334   0.000769
    19  H    0.012969  -0.000935   0.253307   0.000555   0.005662  -0.000001
    20  H   -0.001003   0.028538   0.000045   0.256757   0.001065  -0.001375
    21  H   -0.002274   0.000348   0.001366  -0.000625   0.237986   0.000000
             13         14         15         16         17         18
     1  C    0.397158   0.003573  -0.002784   0.002713   0.015336   0.019087
     2  C   -0.004897   0.320110   0.044407  -0.001416  -0.029377  -0.035088
     3  C   -0.031012   0.022877   0.321072   0.018118   0.015133  -0.042172
     4  C   -0.000972   0.010848   0.014952   0.365755  -0.072435  -0.104599
     5  C    0.011893  -0.018547   0.012536  -0.037854   0.337421   0.074798
     6  C   -0.004110  -0.004776  -0.023056  -0.015936   0.024279   0.404883
     7  O   -0.002628  -0.037702  -0.043503  -0.001816   0.008029   0.011248
     8  O   -0.039807   0.008249  -0.038465   0.001286   0.002030  -0.002132
     9  O   -0.000242   0.003979   0.000209   0.002098  -0.000596  -0.049148
    10  O   -0.000234  -0.000169  -0.000429  -0.051209   0.003269   0.003106
    11  O    0.000066   0.000868  -0.009027   0.000815  -0.027537  -0.001334
    12  H   -0.035926   0.001762  -0.000225  -0.000041   0.000021   0.000769
    13  H    0.540312  -0.003409   0.000566   0.000004  -0.000006   0.000001
    14  H   -0.003409   0.519870  -0.000032  -0.000141   0.000022  -0.002255
    15  H    0.000566  -0.000032   0.547362  -0.000140  -0.003466   0.000025
    16  H    0.000004  -0.000141  -0.000140   0.547097  -0.003350  -0.003665
    17  H   -0.000006   0.000022  -0.003466  -0.003350   0.560415  -0.000141
    18  H    0.000001  -0.002255   0.000025  -0.003665  -0.000141   0.547987
    19  H   -0.000002  -0.000851   0.000050  -0.001495  -0.000072   0.005902
    20  H    0.000302  -0.000053  -0.000118   0.005298  -0.001387  -0.000083
    21  H    0.000001  -0.000008   0.003672   0.000092  -0.005211   0.000015
             19         20         21
     1  C    0.000375  -0.005322  -0.002423
     2  C   -0.021053  -0.006871   0.018169
     3  C   -0.028835   0.024948  -0.048173
     4  C   -0.059583  -0.006564   0.026610
     5  C    0.063985  -0.033188   0.039226
     6  C    0.028865   0.003336  -0.023717
     7  O    0.012969  -0.001003  -0.002274
     8  O   -0.000935   0.028538   0.000348
     9  O    0.253307   0.000045   0.001366
    10  O    0.000555   0.256757  -0.000625
    11  O    0.005662   0.001065   0.237986
    12  H   -0.000001  -0.001375   0.000000
    13  H   -0.000002   0.000302   0.000001
    14  H   -0.000851  -0.000053  -0.000008
    15  H    0.000050  -0.000118   0.003672
    16  H   -0.001495   0.005298   0.000092
    17  H   -0.000072  -0.001387  -0.005211
    18  H    0.005902  -0.000083   0.000015
    19  H    0.334071  -0.000022  -0.000051
    20  H   -0.000022   0.318539  -0.000010
    21  H   -0.000051  -0.000010   0.337898
 Mulliken atomic charges:
              1
     1  C   -0.170394
     2  C    0.332749
     3  C    0.027488
     4  C   -0.044785
     5  C    0.174541
     6  C   -0.072941
     7  O   -0.447084
     8  O   -0.496307
     9  O   -0.590175
    10  O   -0.576102
    11  O   -0.613507
    12  H    0.185751
    13  H    0.172943
    14  H    0.175783
    15  H    0.176392
    16  H    0.173788
    17  H    0.177624
    18  H    0.172797
    19  H    0.407158
    20  H    0.417170
    21  H    0.417109
 Sum of Mulliken atomic charges =   0.00000
 Mulliken charges with hydrogens summed into heavy atoms:
              1
     1  C    0.188299
     2  C    0.508533
     3  C    0.203881
     4  C    0.129003
     5  C    0.352165
     6  C    0.099856
     7  O   -0.447084
     8  O   -0.496307
     9  O   -0.183017
    10  O   -0.158931
    11  O   -0.196398
 Sum of Mulliken charges with hydrogens summed into heavy atoms =   0.00000
 Electronic spatial extent (au):  <R**2>=           1323.9080
 Charge=              0.0000 electrons
 Dipole moment (field-independent basis, Debye):
    X=              2.7572    Y=             -2.3164    Z=             -2.1669  Tot=              4.2028
 Quadrupole moment (field-independent basis, Debye-Ang):
   XX=            -67.2936   YY=            -61.4269   ZZ=            -71.0588
   XY=             10.4885   XZ=              3.2439   YZ=              6.2777
 Traceless Quadrupole moment (field-independent basis, Debye-Ang):
   XX=             -0.7005   YY=              5.1662   ZZ=             -4.4657
   XY=             10.4885   XZ=              3.2439   YZ=              6.2777
 Octapole moment (field-independent basis, Debye-Ang**2):
  XXX=             15.1079  YYY=            -23.9877  ZZZ=            -25.3363  XYY=              7.8378
  XXY=              0.2148  XXZ=             -2.8883  XZZ=             -6.7915  YZZ=             -6.5112
  YYZ=             -9.5946  XYZ=             -6.6223
 Hexadecapole moment (field-independent basis, Debye-Ang**3):
 XXXX=           -679.9696 YYYY=           -498.1360 ZZZZ=           -543.9946 XXXY=             32.2806
 XXXZ=             20.3614 YYYX=             49.0113 YYYZ=             21.5812 ZZZX=             22.4606
 ZZZY=             30.1302 XXYY=           -214.5540 XXZZ=           -160.7164 YYZZ=           -139.1487
 XXYZ=              3.4926 YYXZ=             10.9914 ZZXY=              4.8700
 N-N= 7.404815633480D+02 E-N=-2.910649969094D+03  KE= 6.053559162512D+02

 Test job not archived.
 1\1\GINC-COMPUTE-10-2\SP\RB3LYP\6-31+G(d,p)\C6H10O5\ROOT\15-Apr-2019\0
 \\# B3LYP/6-31+G** test scrf=(pcm,solvent=water,smd,dovacuum)\\comment
 \\0,1\C,0,2.023719,0.513244,0.010755\C,0,0.752112,1.178624,-0.514583\C
 ,0,0.511982,-1.000077,-0.883327\C,0,-0.722626,-0.128681,1.124924\C,0,-
 0.708833,-1.223542,0.036848\C,0,-0.411894,1.257565,0.491856\O,0,0.3856
 75,0.23441,-1.548879\O,0,1.699203,-0.899514,-0.068764\O,0,-1.569227,1.
 763428,-0.16782\O,0,0.156643,-0.459408,2.195953\O,0,-1.925309,-1.08871
 1,-0.698129\H,0,2.270375,0.764087,1.04444\H,0,2.880282,0.725439,-0.636
 371\H,0,0.919494,2.145894,-0.990617\H,0,0.640117,-1.790376,-1.629148\H
 ,0,-1.729589,-0.071527,1.549864\H,0,-0.641252,-2.209649,0.516326\H,0,-
 0.166542,1.962441,1.292701\H,0,-1.852535,1.056559,-0.778273\H,0,0.9408
 16,-0.871394,1.790066\H,0,-1.903816,-1.695906,-1.456703\\Version=EM64L
 -G09RevC.01\State=1-A\HF=-610.8046119\RMSD=7.239e-09\Dipole=1.08478,-0
 .9113231,-0.8525323\Quadrupole=-0.520827,3.8409569,-3.3201299,7.797926
 8,2.4117566,4.66731\PG=C01 [X(C6H10O5)]\\@


 IF OTHER PEOPLE ARE GOING TO TALK, CONVERSATION IS SIMPLY IMPOSSIBLE.

                                               -- WHISTLER'S PRINCIPLE
 Job cpu time:  0 days  0 hours  5 minutes 21.0 seconds.
 File lengths (MBytes):  RWF=     55 Int=      0 D2E=      0 Chk=      4 Scr=      1
 Normal termination of Gaussian 09 at Mon Apr 15 17:50:14 2019.
