 Entering Gaussian System, Link 0=g09
 Input=/home/asarotti.iquir/SCF3/01_RSR_Levo15_OPTB_energy_b3lyp_smd.gjc
 Output=/home/asarotti.iquir/SCF3/01_RSR_Levo15_OPTB_energy_b3lyp_smd.log
 Initial command:
 /share/apps/Gaussian09/EM64T.SSE4.2-enabled/g09/l1.exe /tmp/Gau-10749.inp -scrdir=/tmp/
 Entering Link 1 = /share/apps/Gaussian09/EM64T.SSE4.2-enabled/g09/l1.exe PID=     10750.
  
 Copyright (c) 1988,1990,1992,1993,1995,1998,2003,2009,2011,
            Gaussian, Inc.  All Rights Reserved.
  
 This is part of the Gaussian(R) 09 program.  It is based on
 the Gaussian(R) 03 system (copyright 2003, Gaussian, Inc.),
 the Gaussian(R) 98 system (copyright 1998, Gaussian, Inc.),
 the Gaussian(R) 94 system (copyright 1995, Gaussian, Inc.),
 the Gaussian 92(TM) system (copyright 1992, Gaussian, Inc.),
 the Gaussian 90(TM) system (copyright 1990, Gaussian, Inc.),
 the Gaussian 88(TM) system (copyright 1988, Gaussian, Inc.),
 the Gaussian 86(TM) system (copyright 1986, Carnegie Mellon
 University), and the Gaussian 82(TM) system (copyright 1983,
 Carnegie Mellon University). Gaussian is a federally registered
 trademark of Gaussian, Inc.
  
 This software contains proprietary and confidential information,
 including trade secrets, belonging to Gaussian, Inc.
  
 This software is provided under written license and may be
 used, copied, transmitted, or stored only in accord with that
 written license.
  
 The following legend is applicable only to US Government
 contracts under FAR:
  
                    RESTRICTED RIGHTS LEGEND
  
 Use, reproduction and disclosure by the US Government is
 subject to restrictions as set forth in subparagraphs (a)
 and (c) of the Commercial Computer Software - Restricted
 Rights clause in FAR 52.227-19.
  
 Gaussian, Inc.
 340 Quinnipiac St., Bldg. 40, Wallingford CT 06492
  
  
 ---------------------------------------------------------------
 Warning -- This program may not be used in any manner that
 competes with the business of Gaussian, Inc. or will provide
 assistance to any competitor of Gaussian, Inc.  The licensee
 of this program is prohibited from giving any competitor of
 Gaussian, Inc. access to this program.  By using this program,
 the user acknowledges that Gaussian, Inc. is engaged in the
 business of creating and licensing software in the field of
 computational chemistry and represents and warrants to the
 licensee that it is not a competitor of Gaussian, Inc. and that
 it will not use this program in any manner prohibited above.
 ---------------------------------------------------------------
  

 Cite this work as:
 Gaussian 09, Revision C.01,
 M. J. Frisch, G. W. Trucks, H. B. Schlegel, G. E. Scuseria, 
 M. A. Robb, J. R. Cheeseman, G. Scalmani, V. Barone, B. Mennucci, 
 G. A. Petersson, H. Nakatsuji, M. Caricato, X. Li, H. P. Hratchian, 
 A. F. Izmaylov, J. Bloino, G. Zheng, J. L. Sonnenberg, M. Hada, 
 M. Ehara, K. Toyota, R. Fukuda, J. Hasegawa, M. Ishida, T. Nakajima, 
 Y. Honda, O. Kitao, H. Nakai, T. Vreven, J. A. Montgomery, Jr., 
 J. E. Peralta, F. Ogliaro, M. Bearpark, J. J. Heyd, E. Brothers, 
 K. N. Kudin, V. N. Staroverov, T. Keith, R. Kobayashi, J. Normand, 
 K. Raghavachari, A. Rendell, J. C. Burant, S. S. Iyengar, J. Tomasi, 
 M. Cossi, N. Rega, J. M. Millam, M. Klene, J. E. Knox, J. B. Cross, 
 V. Bakken, C. Adamo, J. Jaramillo, R. Gomperts, R. E. Stratmann, 
 O. Yazyev, A. J. Austin, R. Cammi, C. Pomelli, J. W. Ochterski, 
 R. L. Martin, K. Morokuma, V. G. Zakrzewski, G. A. Voth, 
 P. Salvador, J. J. Dannenberg, S. Dapprich, A. D. Daniels, 
 O. Farkas, J. B. Foresman, J. V. Ortiz, J. Cioslowski, 
 and D. J. Fox, Gaussian, Inc., Wallingford CT, 2010.
 
 ******************************************
 Gaussian 09:  EM64L-G09RevC.01 23-Sep-2011
                16-Apr-2019 
 ******************************************
 %nprocshared=4
 Will use up to    4 processors via shared memory.
 -----------------------------------------------------------
 # B3LYP/6-31+G** test scrf=(pcm,solvent=water,smd,dovacuum)
 -----------------------------------------------------------
 1/38=1/1;
 2/12=2,17=6,18=5,40=1/2;
 3/5=1,6=6,7=111,11=2,16=1,25=1,30=1,70=32101,72=1,74=-5/1,2,3;
 4//1;
 5/5=2,38=5,53=1/2;
 6/7=2,8=2,9=2,10=2,28=1/1;
 99/5=1,9=1/99;
 -------
 comment
 -------
 Charge =  0 Multiplicity = 1
 Symbolic Z-Matrix:
 6                    -1.99771  -0.54144   0.04385 
 6                    -0.80831  -0.9004   -0.86096 
 6                    -0.62697   1.25381  -0.37287 
 6                     0.85932  -0.31478   0.98047 
 6                     0.64345   1.13329   0.4965 
 6                     0.47257  -1.33255  -0.1265 
 8                    -0.53312   0.37623  -1.47976 
 8                    -1.77917   0.85146   0.35313 
 8                     1.53408  -1.46103  -1.06792 
 8                     0.10572  -0.49225   2.17709 
 8                     1.79948   1.45728  -0.28016 
 1                    -2.02915  -1.1197    0.9688 
 1                    -2.94766  -0.64044  -0.49199 
 1                    -1.05482  -1.60974  -1.65291 
 1                    -0.76703   2.27287  -0.74883 
 1                     1.93268  -0.43689   1.17797 
 1                     0.5513    1.79048   1.37137 
 1                     0.33399  -2.3223    0.32333 
 1                     1.68374  -0.5621   -1.41463 
 1                     0.35255  -1.35428   2.54924 
 1                     1.67451   2.34101  -0.66437 
 
                          Input orientation:                          
 ---------------------------------------------------------------------
 Center     Atomic      Atomic             Coordinates (Angstroms)
 Number     Number       Type             X           Y           Z
 ---------------------------------------------------------------------
      1          6           0       -1.997714   -0.541439    0.043845
      2          6           0       -0.808313   -0.900403   -0.860956
      3          6           0       -0.626967    1.253808   -0.372868
      4          6           0        0.859318   -0.314779    0.980466
      5          6           0        0.643452    1.133291    0.496502
      6          6           0        0.472566   -1.332553   -0.126501
      7          8           0       -0.533116    0.376229   -1.479755
      8          8           0       -1.779170    0.851460    0.353133
      9          8           0        1.534075   -1.461028   -1.067918
     10          8           0        0.105715   -0.492251    2.177093
     11          8           0        1.799476    1.457284   -0.280164
     12          1           0       -2.029155   -1.119702    0.968804
     13          1           0       -2.947661   -0.640443   -0.491993
     14          1           0       -1.054816   -1.609736   -1.652913
     15          1           0       -0.767030    2.272867   -0.748833
     16          1           0        1.932679   -0.436891    1.177970
     17          1           0        0.551302    1.790481    1.371366
     18          1           0        0.333993   -2.322299    0.323332
     19          1           0        1.683738   -0.562100   -1.414630
     20          1           0        0.352552   -1.354283    2.549240
     21          1           0        1.674514    2.341005   -0.664369
 ---------------------------------------------------------------------
                    Distance matrix (angstroms):
                    1          2          3          4          5
     1  C    0.000000
     2  C    1.536943   0.000000
     3  C    2.296848   2.216245   0.000000
     4  C    3.015173   2.552407   2.549710   0.000000
     5  C    3.159965   2.843629   1.544116   1.541988   0.000000
     6  C    2.599454   1.538450   2.821158   1.552681   2.549063
     7  O    2.304022   1.445142   1.415681   2.910164   2.421373
     8  O    1.443464   2.342136   1.420047   2.952165   2.443170
     9  O    3.815127   2.417419   3.538860   2.442347   3.157706
    10  O    2.996261   3.198715   3.176137   1.425247   2.399153
    11  O    4.303316   3.563225   2.436724   2.369239   1.429886
    12  H    1.091295   2.210559   3.065904   2.998552   3.527304
    13  H    1.095136   2.186441   2.997999   4.094787   4.125451
    14  H    2.215695   1.091381   3.165668   3.503642   3.876635
    15  H    3.172261   3.175519   1.095193   3.511609   2.199762
    16  H    4.092085   3.447477   3.437346   1.098191   2.142890
    17  H    3.701033   3.751356   2.172254   2.163284   1.098079
    18  H    2.947275   2.174670   3.767848   2.176678   3.473738
    19  H    3.959882   2.575135   3.118036   2.545058   2.758436
    20  H    3.530081   3.630847   4.037364   1.948957   3.238268
    21  H    4.721791   4.087762   2.561988   3.228500   1.967049
                    6          7          8          9         10
     6  C    0.000000
     7  O    2.400548   0.000000
     8  O    3.173370   2.266710   0.000000
     9  O    1.424631   2.796140   4.283057   0.000000
    10  O    2.479361   3.812466   2.947063   3.675437   0.000000
    11  O    3.093136   2.837020   3.684399   3.034393   3.564776
    12  H    2.739271   3.235952   2.080150   4.118416   2.532060
    13  H    3.508640   2.799879   2.074942   4.592495   4.058212
    14  H    2.177076   2.060634   3.256746   2.658325   4.155063
    15  H    3.863023   2.046020   2.063772   4.397598   4.119297
    16  H    2.153087   3.715483   4.014726   2.500351   2.083053
    17  H    3.464556   3.362285   2.711025   4.181897   2.461424
    18  H    1.095970   3.359323   3.813016   2.029177   2.614884
    19  H    1.928681   2.408141   4.137012   0.975028   3.923711
    20  H    2.678519   4.473464   3.772589   3.806734   0.970835
    21  H    3.902436   3.065751   3.896407   3.825968   4.308408
                   11         12         13         14         15
    11  O    0.000000
    12  H    4.781129   0.000000
    13  H    5.194289   1.790885   0.000000
    14  H    4.408859   2.839519   2.422834   0.000000
    15  H    2.733456   4.006590   3.648081   3.996847   0.000000
    16  H    2.394117   4.025681   5.162163   4.279555   4.282965
    17  H    2.096786   3.910240   4.650187   4.825697   2.542821
    18  H    4.098426   2.728982   3.776592   2.518349   4.845342
    19  H    2.319121   4.447162   4.723056   2.941768   3.806125
    20  H    4.243115   2.867984   4.544235   4.438922   5.028615
    21  H    0.971695   5.325496   5.503022   4.902532   2.443955
                   16         17         18         19         20
    16  H    0.000000
    17  H    2.628077   0.000000
    18  H    2.615524   4.249771   0.000000
    19  H    2.607532   3.818222   2.817911   0.000000
    20  H    2.284467   3.363990   2.427358   4.255805   0.000000
    21  H    3.343287   2.389330   4.951662   2.998499   5.072477
                   21
    21  H    0.000000
 Stoichiometry    C6H10O5
 Framework group  C1[X(C6H10O5)]
 Deg. of freedom    57
 Full point group                 C1      NOp   1
 Largest Abelian subgroup         C1      NOp   1
 Largest concise Abelian subgroup C1      NOp   1
                         Standard orientation:                         
 ---------------------------------------------------------------------
 Center     Atomic      Atomic             Coordinates (Angstroms)
 Number     Number       Type             X           Y           Z
 ---------------------------------------------------------------------
      1          6           0       -1.997714   -0.541439    0.043845
      2          6           0       -0.808313   -0.900403   -0.860956
      3          6           0       -0.626967    1.253808   -0.372868
      4          6           0        0.859318   -0.314779    0.980466
      5          6           0        0.643452    1.133291    0.496502
      6          6           0        0.472566   -1.332553   -0.126501
      7          8           0       -0.533116    0.376229   -1.479755
      8          8           0       -1.779170    0.851460    0.353133
      9          8           0        1.534075   -1.461028   -1.067918
     10          8           0        0.105715   -0.492251    2.177093
     11          8           0        1.799476    1.457284   -0.280164
     12          1           0       -2.029155   -1.119702    0.968804
     13          1           0       -2.947661   -0.640443   -0.491993
     14          1           0       -1.054816   -1.609736   -1.652913
     15          1           0       -0.767030    2.272867   -0.748833
     16          1           0        1.932679   -0.436891    1.177970
     17          1           0        0.551302    1.790481    1.371366
     18          1           0        0.333993   -2.322299    0.323332
     19          1           0        1.683738   -0.562100   -1.414630
     20          1           0        0.352552   -1.354283    2.549240
     21          1           0        1.674514    2.341005   -0.664369
 ---------------------------------------------------------------------
 Rotational constants (GHZ):      1.4205259      1.2017416      1.1774549
 Standard basis: 6-31+G(d,p) (6D, 7F)
 There are   259 symmetry adapted basis functions of A   symmetry.
 Integral buffers will be    131072 words long.
 Raffenetti 2 integral format.
 Two-electron integral symmetry is turned on.
   259 basis functions,   422 primitive gaussians,   259 cartesian basis functions
    43 alpha electrons       43 beta electrons
       nuclear repulsion energy       736.7479756982 Hartrees.
 NAtoms=   21 NActive=   21 NUniq=   21 SFac= 1.00D+00 NAtFMM=   60 NAOKFM=F Big=F
 ------------------------------------------------------------------------------
 Polarizable Continuum Model (PCM)
 =================================
 Model                : C-PCM.
 Atomic radii         : SMD-Coulomb.
 Polarization charges : Total charges.
 Charge compensation  : None.
 Solution method      : Matrix inversion.
 Cavity type          : VdW (van der Waals Surface) (Alpha=1.000).
 Cavity algorithm     : GePol (No added spheres)
                        Default sphere list used, NSphG=   21.
                        Lebedev-Laikov grids with approx.  5.0 points / Ang**2.
                        Smoothing algorithm: Karplus/York (Gamma=1.0000).
                        Polarization charges: spherical gaussians, with
                                              point-specific exponents (IZeta= 3).
                        Self-potential: point-specific (ISelfS= 7).
                        Self-field    : sphere-specific E.n sum rule (ISelfD= 2).
 Solvent              : Water, Eps=  78.355300 Eps(inf)=   1.777849
 ------------------------------------------------------------------------------
 ------------------------------------------------------------------------------
 Atomic radii for non-electrostatic terms: SMD-CDS.
 ------------------------------------------------------------------------------
 Nuclear repulsion after PCM non-electrostatic terms =      736.7530661931 Hartrees.
 One-electron integrals computed using PRISM.
 NBasis=   259 RedAO= T  NBF=   259
 NBsUse=   259 1.00D-06 NBFU=   259
 Harris functional with IExCor=  402 diagonalized for initial guess.
 ExpMin= 4.38D-02 ExpMax= 5.48D+03 ExpMxC= 8.25D+02 IAcc=2 IRadAn=         4 AccDes= 0.00D+00
 HarFok:  IExCor=  402 AccDes= 0.00D+00 IRadAn=         4 IDoV= 1
 ScaDFX=  1.000000  1.000000  1.000000  1.000000
 FoFCou: FMM=F IPFlag=           0 FMFlag=      100000 FMFlg1=           0
         NFxFlg=           0 DoJE=T BraDBF=F KetDBF=T FulRan=T
         Omega=  0.000000  0.000000  1.000000  0.000000  0.000000 ICntrl=     500 IOpCl=  0
         NMat0=    1 NMatS0=    1 NMatT0=    0 NMatD0=    1 NMtDS0=    0 NMtDT0=    0
         I1Cent=           4 NGrid=           0.
 Petite list used in FoFCou.
 Initial guess orbital symmetries:
       Occupied  (A) (A) (A) (A) (A) (A) (A) (A) (A) (A) (A) (A)
                 (A) (A) (A) (A) (A) (A) (A) (A) (A) (A) (A) (A)
                 (A) (A) (A) (A) (A) (A) (A) (A) (A) (A) (A) (A)
                 (A) (A) (A) (A) (A) (A) (A)
       Virtual   (A) (A) (A) (A) (A) (A) (A) (A) (A) (A) (A) (A)
                 (A) (A) (A) (A) (A) (A) (A) (A) (A) (A) (A) (A)
                 (A) (A) (A) (A) (A) (A) (A) (A) (A) (A) (A) (A)
                 (A) (A) (A) (A) (A) (A) (A) (A) (A) (A) (A) (A)
                 (A) (A) (A) (A) (A) (A) (A) (A) (A) (A) (A) (A)
                 (A) (A) (A) (A) (A) (A) (A) (A) (A) (A) (A) (A)
                 (A) (A) (A) (A) (A) (A) (A) (A) (A) (A) (A) (A)
                 (A) (A) (A) (A) (A) (A) (A) (A) (A) (A) (A) (A)
                 (A) (A) (A) (A) (A) (A) (A) (A) (A) (A) (A) (A)
                 (A) (A) (A) (A) (A) (A) (A) (A) (A) (A) (A) (A)
                 (A) (A) (A) (A) (A) (A) (A) (A) (A) (A) (A) (A)
                 (A) (A) (A) (A) (A) (A) (A) (A) (A) (A) (A) (A)
                 (A) (A) (A) (A) (A) (A) (A) (A) (A) (A) (A) (A)
                 (A) (A) (A) (A) (A) (A) (A) (A) (A) (A) (A) (A)
                 (A) (A) (A) (A) (A) (A) (A) (A) (A) (A) (A) (A)
                 (A) (A) (A) (A) (A) (A) (A) (A) (A) (A) (A) (A)
                 (A) (A) (A) (A) (A) (A) (A) (A) (A) (A) (A) (A)
                 (A) (A) (A) (A) (A) (A) (A) (A) (A) (A) (A) (A)
 The electronic state of the initial guess is 1-A.
 Requested convergence on RMS density matrix=1.00D-08 within 128 cycles.
 Requested convergence on MAX density matrix=1.00D-06.
 Requested convergence on             energy=1.00D-06.
 No special actions if energy rises.
 Error on total polarization charges =  0.05646
 SCF Done:  E(RB3LYP) =  -610.804996952     A.U. after   12 cycles
             Convg  =    0.6132D-08             -V/T =  2.0090
 SMD-CDS (non-electrostatic) energy       (kcal/mol) =       3.19
 (included in total energy above)

 **********************************************************************

            Population analysis using the SCF density.

 **********************************************************************

 Orbital symmetries:
       Occupied  (A) (A) (A) (A) (A) (A) (A) (A) (A) (A) (A) (A)
                 (A) (A) (A) (A) (A) (A) (A) (A) (A) (A) (A) (A)
                 (A) (A) (A) (A) (A) (A) (A) (A) (A) (A) (A) (A)
                 (A) (A) (A) (A) (A) (A) (A)
       Virtual   (A) (A) (A) (A) (A) (A) (A) (A) (A) (A) (A) (A)
                 (A) (A) (A) (A) (A) (A) (A) (A) (A) (A) (A) (A)
                 (A) (A) (A) (A) (A) (A) (A) (A) (A) (A) (A) (A)
                 (A) (A) (A) (A) (A) (A) (A) (A) (A) (A) (A) (A)
                 (A) (A) (A) (A) (A) (A) (A) (A) (A) (A) (A) (A)
                 (A) (A) (A) (A) (A) (A) (A) (A) (A) (A) (A) (A)
                 (A) (A) (A) (A) (A) (A) (A) (A) (A) (A) (A) (A)
                 (A) (A) (A) (A) (A) (A) (A) (A) (A) (A) (A) (A)
                 (A) (A) (A) (A) (A) (A) (A) (A) (A) (A) (A) (A)
                 (A) (A) (A) (A) (A) (A) (A) (A) (A) (A) (A) (A)
                 (A) (A) (A) (A) (A) (A) (A) (A) (A) (A) (A) (A)
                 (A) (A) (A) (A) (A) (A) (A) (A) (A) (A) (A) (A)
                 (A) (A) (A) (A) (A) (A) (A) (A) (A) (A) (A) (A)
                 (A) (A) (A) (A) (A) (A) (A) (A) (A) (A) (A) (A)
                 (A) (A) (A) (A) (A) (A) (A) (A) (A) (A) (A) (A)
                 (A) (A) (A) (A) (A) (A) (A) (A) (A) (A) (A) (A)
                 (A) (A) (A) (A) (A) (A) (A) (A) (A) (A) (A) (A)
                 (A) (A) (A) (A) (A) (A) (A) (A) (A) (A) (A) (A)
 The electronic state is 1-A.
 Alpha  occ. eigenvalues --  -19.18233 -19.17579 -19.17425 -19.16943 -19.16782
 Alpha  occ. eigenvalues --  -10.29343 -10.24825 -10.24755 -10.24733 -10.24530
 Alpha  occ. eigenvalues --  -10.23868  -1.11233  -1.04735  -1.03530  -1.03375
 Alpha  occ. eigenvalues --   -1.00929  -0.79033  -0.77786  -0.67894  -0.65863
 Alpha  occ. eigenvalues --   -0.62799  -0.57928  -0.55422  -0.54763  -0.51950
 Alpha  occ. eigenvalues --   -0.50105  -0.47240  -0.46242  -0.45444  -0.45011
 Alpha  occ. eigenvalues --   -0.43018  -0.41651  -0.39593  -0.38852  -0.38186
 Alpha  occ. eigenvalues --   -0.37041  -0.35727  -0.33854  -0.31374  -0.30275
 Alpha  occ. eigenvalues --   -0.29651  -0.27005  -0.26419
 Alpha virt. eigenvalues --    0.00834   0.01210   0.02606   0.02810   0.03656
 Alpha virt. eigenvalues --    0.04669   0.05205   0.05472   0.06254   0.08205
 Alpha virt. eigenvalues --    0.08635   0.09570   0.10186   0.10441   0.11703
 Alpha virt. eigenvalues --    0.12315   0.12722   0.13780   0.13988   0.14069
 Alpha virt. eigenvalues --    0.15022   0.16002   0.16657   0.17283   0.17428
 Alpha virt. eigenvalues --    0.17970   0.19174   0.19220   0.19810   0.20637
 Alpha virt. eigenvalues --    0.21216   0.22352   0.22501   0.23035   0.24059
 Alpha virt. eigenvalues --    0.24702   0.25202   0.25649   0.26682   0.27098
 Alpha virt. eigenvalues --    0.27189   0.27911   0.28927   0.29211   0.30259
 Alpha virt. eigenvalues --    0.30674   0.31046   0.31577   0.32997   0.33469
 Alpha virt. eigenvalues --    0.33821   0.34574   0.35326   0.35920   0.36735
 Alpha virt. eigenvalues --    0.37043   0.37378   0.38106   0.38845   0.39764
 Alpha virt. eigenvalues --    0.41995   0.43112   0.44480   0.44900   0.46294
 Alpha virt. eigenvalues --    0.49133   0.64097   0.65597   0.66009   0.67532
 Alpha virt. eigenvalues --    0.70075   0.70712   0.72462   0.75705   0.76953
 Alpha virt. eigenvalues --    0.78814   0.80498   0.82234   0.82743   0.85812
 Alpha virt. eigenvalues --    0.87389   0.91759   0.95027   0.97283   0.98848
 Alpha virt. eigenvalues --    1.01014   1.02019   1.02792   1.05083   1.06208
 Alpha virt. eigenvalues --    1.06636   1.08586   1.09752   1.11219   1.13286
 Alpha virt. eigenvalues --    1.18193   1.19775   1.23632   1.23758   1.25984
 Alpha virt. eigenvalues --    1.27108   1.27904   1.28920   1.31004   1.32115
 Alpha virt. eigenvalues --    1.32525   1.36232   1.38136   1.39390   1.41373
 Alpha virt. eigenvalues --    1.43719   1.44820   1.45858   1.46842   1.49095
 Alpha virt. eigenvalues --    1.51965   1.55458   1.56355   1.57972   1.60292
 Alpha virt. eigenvalues --    1.63300   1.64091   1.66645   1.67205   1.69166
 Alpha virt. eigenvalues --    1.71285   1.73816   1.74264   1.76899   1.78676
 Alpha virt. eigenvalues --    1.79955   1.82601   1.84534   1.86049   1.87987
 Alpha virt. eigenvalues --    1.90821   1.93101   1.95339   1.97266   1.99247
 Alpha virt. eigenvalues --    2.00494   2.03432   2.03884   2.06194   2.07786
 Alpha virt. eigenvalues --    2.09967   2.11081   2.12645   2.15311   2.16854
 Alpha virt. eigenvalues --    2.19703   2.20276   2.24172   2.27791   2.28346
 Alpha virt. eigenvalues --    2.32530   2.36545   2.37197   2.39866   2.42893
 Alpha virt. eigenvalues --    2.44010   2.45357   2.48025   2.49909   2.50537
 Alpha virt. eigenvalues --    2.52657   2.53940   2.61112   2.63914   2.64540
 Alpha virt. eigenvalues --    2.66819   2.67771   2.68119   2.69625   2.70284
 Alpha virt. eigenvalues --    2.71462   2.73300   2.75120   2.77920   2.80265
 Alpha virt. eigenvalues --    2.81780   2.83605   2.87272   2.88300   2.89501
 Alpha virt. eigenvalues --    2.91392   2.94961   2.96166   2.99421   3.02226
 Alpha virt. eigenvalues --    3.03122   3.07964   3.12206   3.19401   3.22628
 Alpha virt. eigenvalues --    3.35385   3.39218   3.43468   3.46039   3.48098
 Alpha virt. eigenvalues --    3.48951   3.51718   3.54676   3.57714   3.60800
 Alpha virt. eigenvalues --    4.29388   4.31185   4.43008   4.47008   4.49250
 Alpha virt. eigenvalues --    4.55413   4.61487   4.80749   4.87805   4.96720
 Alpha virt. eigenvalues --    5.06598
          Condensed to atoms (all electrons):
              1          2          3          4          5          6
     1  C    5.615523  -0.387231  -0.366106  -0.377240   0.239948   0.302986
     2  C   -0.387231   7.125141  -0.468534   0.655651   0.016025  -1.057999
     3  C   -0.366106  -0.468534   6.678903   0.340987  -1.253896   0.258073
     4  C   -0.377240   0.655651   0.340987   6.583733  -0.617049  -0.682103
     5  C    0.239948   0.016025  -1.253896  -0.617049   7.323176  -0.146201
     6  C    0.302986  -1.057999   0.258073  -0.682103  -0.146201   6.686173
     7  O    0.026853   0.026247   0.258561  -0.122939  -0.085132  -0.016329
     8  O    0.131677  -0.112807   0.388241   0.072866  -0.251526  -0.013462
     9  O    0.015455  -0.151511  -0.024101  -0.081226   0.036116   0.289396
    10  O    0.036572  -0.056703  -0.034541   0.174375  -0.077509  -0.006009
    11  O    0.020232  -0.073456  -0.016947  -0.118588   0.128120   0.069339
    12  H    0.480033  -0.174885   0.013794  -0.042667   0.008100   0.075536
    13  H    0.412356  -0.008070  -0.028632  -0.002338   0.012995  -0.009392
    14  H    0.000856   0.327710   0.022760   0.012543  -0.019796  -0.011209
    15  H    0.004991   0.041330   0.345936   0.013155  -0.005307  -0.027179
    16  H    0.001955  -0.002650  -0.005804   0.304060   0.013913   0.008291
    17  H    0.019742  -0.037623   0.017365  -0.066343   0.323439   0.035456
    18  H    0.020509  -0.041888  -0.033256  -0.090206   0.056292   0.414412
    19  H    0.001453  -0.025010  -0.023564  -0.053085   0.052304   0.031367
    20  H   -0.007000   0.022154  -0.010852   0.045188   0.024318  -0.066165
    21  H   -0.001957   0.015418  -0.043275   0.024411   0.035590  -0.020884
              7          8          9         10         11         12
     1  C    0.026853   0.131677   0.015455   0.036572   0.020232   0.480033
     2  C    0.026247  -0.112807  -0.151511  -0.056703  -0.073456  -0.174885
     3  C    0.258561   0.388241  -0.024101  -0.034541  -0.016947   0.013794
     4  C   -0.122939   0.072866  -0.081226   0.174375  -0.118588  -0.042667
     5  C   -0.085132  -0.251526   0.036116  -0.077509   0.128120   0.008100
     6  C   -0.016329  -0.013462   0.289396  -0.006009   0.069339   0.075536
     7  O    8.413621  -0.049725   0.007440   0.010490   0.014683   0.009978
     8  O   -0.049725   8.402986  -0.001354  -0.005527   0.010581  -0.043452
     9  O    0.007440  -0.001354   8.288188   0.006631  -0.007952   0.000183
    10  O    0.010490  -0.005527   0.006631   8.338790   0.010380  -0.001018
    11  O    0.014683   0.010581  -0.007952   0.010380   8.378688   0.000066
    12  H    0.009978  -0.043452   0.000183  -0.001018   0.000066   0.534770
    13  H   -0.000788  -0.051357  -0.000180   0.000861   0.000065  -0.040002
    14  H   -0.036552   0.007376   0.004805  -0.000442   0.000719   0.002385
    15  H   -0.043667  -0.045981   0.000266  -0.000092  -0.009052  -0.000263
    16  H   -0.000966  -0.000186   0.000270  -0.031755  -0.004756  -0.000041
    17  H    0.009335   0.000838  -0.000465   0.003134  -0.026883   0.000057
    18  H    0.010492  -0.001147  -0.051451  -0.007153  -0.000827   0.000273
    19  H    0.016640  -0.000862   0.253216   0.000185   0.002658  -0.000004
    20  H    0.000080   0.000212   0.000367   0.243704  -0.000638  -0.000412
    21  H   -0.002698   0.000335   0.000802  -0.000619   0.238282  -0.000001
             13         14         15         16         17         18
     1  C    0.412356   0.000856   0.004991   0.001955   0.019742   0.020509
     2  C   -0.008070   0.327710   0.041330  -0.002650  -0.037623  -0.041888
     3  C   -0.028632   0.022760   0.345936  -0.005804   0.017365  -0.033256
     4  C   -0.002338   0.012543   0.013155   0.304060  -0.066343  -0.090206
     5  C    0.012995  -0.019796  -0.005307   0.013913   0.323439   0.056292
     6  C   -0.009392  -0.011209  -0.027179   0.008291   0.035456   0.414412
     7  O   -0.000788  -0.036552  -0.043667  -0.000966   0.009335   0.010492
     8  O   -0.051357   0.007376  -0.045981  -0.000186   0.000838  -0.001147
     9  O   -0.000180   0.004805   0.000266   0.000270  -0.000465  -0.051451
    10  O    0.000861  -0.000442  -0.000092  -0.031755   0.003134  -0.007153
    11  O    0.000065   0.000719  -0.009052  -0.004756  -0.026883  -0.000827
    12  H   -0.040002   0.002385  -0.000263  -0.000041   0.000057   0.000273
    13  H    0.553703  -0.004314   0.000299   0.000004  -0.000009   0.000021
    14  H   -0.004314   0.523403  -0.000048  -0.000151   0.000024  -0.002402
    15  H    0.000299  -0.000048   0.553057  -0.000143  -0.003479   0.000025
    16  H    0.000004  -0.000151  -0.000143   0.565061  -0.003155  -0.003441
    17  H   -0.000009   0.000024  -0.003479  -0.003155   0.567031  -0.000139
    18  H    0.000021  -0.002402   0.000025  -0.003441  -0.000139   0.549193
    19  H   -0.000003  -0.000911   0.000059  -0.001433  -0.000069   0.006103
    20  H    0.000004  -0.000005   0.000010  -0.007733   0.000110   0.004044
    21  H    0.000001  -0.000006   0.004419   0.000272  -0.005784   0.000014
             19         20         21
     1  C    0.001453  -0.007000  -0.001957
     2  C   -0.025010   0.022154   0.015418
     3  C   -0.023564  -0.010852  -0.043275
     4  C   -0.053085   0.045188   0.024411
     5  C    0.052304   0.024318   0.035590
     6  C    0.031367  -0.066165  -0.020884
     7  O    0.016640   0.000080  -0.002698
     8  O   -0.000862   0.000212   0.000335
     9  O    0.253216   0.000367   0.000802
    10  O    0.000185   0.243704  -0.000619
    11  O    0.002658  -0.000638   0.238282
    12  H   -0.000004  -0.000412  -0.000001
    13  H   -0.000003   0.000004   0.000001
    14  H   -0.000911  -0.000005  -0.000006
    15  H    0.000059   0.000010   0.004419
    16  H   -0.001433  -0.007733   0.000272
    17  H   -0.000069   0.000110  -0.005784
    18  H    0.006103   0.004044   0.000014
    19  H    0.336462   0.000014   0.000133
    20  H    0.000014   0.337981   0.000009
    21  H    0.000133   0.000009   0.342163
 Mulliken atomic charges:
              1
     1  C   -0.191606
     2  C    0.368691
     3  C   -0.015111
     4  C    0.026814
     5  C    0.186081
     6  C   -0.114096
     7  O   -0.445624
     8  O   -0.437726
     9  O   -0.584893
    10  O   -0.603757
    11  O   -0.614713
    12  H    0.177571
    13  H    0.164777
    14  H    0.173256
    15  H    0.171663
    16  H    0.168390
    17  H    0.167420
    18  H    0.170532
    19  H    0.404346
    20  H    0.414610
    21  H    0.413376
 Sum of Mulliken atomic charges =   0.00000
 Mulliken charges with hydrogens summed into heavy atoms:
              1
     1  C    0.150742
     2  C    0.541947
     3  C    0.156552
     4  C    0.195204
     5  C    0.353500
     6  C    0.056437
     7  O   -0.445624
     8  O   -0.437726
     9  O   -0.180547
    10  O   -0.189147
    11  O   -0.201337
 Sum of Mulliken charges with hydrogens summed into heavy atoms =   0.00000
 Electronic spatial extent (au):  <R**2>=           1339.4169
 Charge=              0.0000 electrons
 Dipole moment (field-independent basis, Debye):
    X=             -0.7545    Y=             -0.3659    Z=              0.9500  Tot=              1.2672
 Quadrupole moment (field-independent basis, Debye-Ang):
   XX=            -71.4973   YY=            -53.4434   ZZ=            -68.9166
   XY=              9.3066   XZ=              5.1660   YZ=             -9.1245
 Traceless Quadrupole moment (field-independent basis, Debye-Ang):
   XX=             -6.8782   YY=             11.1757   ZZ=             -4.2975
   XY=              9.3066   XZ=              5.1660   YZ=             -9.1245
 Octapole moment (field-independent basis, Debye-Ang**2):
  XXX=            -11.5893  YYY=             25.8398  ZZZ=              5.7100  XYY=              0.3125
  XXY=             -4.4406  XXZ=             -2.0309  XZZ=              8.8777  YZZ=            -10.1750
  YYZ=              7.2122  XYZ=            -10.8134
 Hexadecapole moment (field-independent basis, Debye-Ang**3):
 XXXX=           -697.7580 YYYY=           -435.7504 ZZZZ=           -484.9149 XXXY=             32.3054
 XXXZ=              8.3758 YYYX=             43.7081 YYYZ=            -52.6754 ZZZX=              2.2935
 ZZZY=            -39.4832 XXYY=           -209.9693 XXZZ=           -184.8367 YYZZ=           -139.6614
 XXYZ=            -21.6883 YYXZ=             11.5372 ZZXY=              9.5865
 N-N= 7.367530661931D+02 E-N=-2.903887351668D+03  KE= 6.053552796964D+02

 Test job not archived.
 1\1\GINC-COMPUTE-10-1\SP\RB3LYP\6-31+G(d,p)\C6H10O5\ASAROTTI.IQUIR\16-
 Apr-2019\0\\# B3LYP/6-31+G** test scrf=(pcm,solvent=water,smd,dovacuum
 )\\comment\\0,1\C,0,-1.997714,-0.541439,0.043845\C,0,-0.808313,-0.9004
 03,-0.860956\C,0,-0.626967,1.253808,-0.372868\C,0,0.859318,-0.314779,0
 .980466\C,0,0.643452,1.133291,0.496502\C,0,0.472566,-1.332553,-0.12650
 1\O,0,-0.533116,0.376229,-1.479755\O,0,-1.77917,0.85146,0.353133\O,0,1
 .534075,-1.461028,-1.067918\O,0,0.105715,-0.492251,2.177093\O,0,1.7994
 76,1.457284,-0.280164\H,0,-2.029155,-1.119702,0.968804\H,0,-2.947661,-
 0.640443,-0.491993\H,0,-1.054816,-1.609736,-1.652913\H,0,-0.76703,2.27
 2867,-0.748833\H,0,1.932679,-0.436891,1.17797\H,0,0.551302,1.790481,1.
 371366\H,0,0.333993,-2.322299,0.323332\H,0,1.683738,-0.5621,-1.41463\H
 ,0,0.352552,-1.354283,2.54924\H,0,1.674514,2.341005,-0.664369\\Version
 =EM64L-G09RevC.01\State=1-A\HF=-610.804997\RMSD=6.132e-09\Dipole=-0.29
 68593,-0.1439745,0.3737522\Quadrupole=-5.1138061,8.3088907,-3.1950846,
 6.919207,3.840788,-6.7838426\PG=C01 [X(C6H10O5)]\\@


 EVERYTHING'S GOT A MORAL, IF ONLY YOU CAN FIND IT.

                                    -- LEWIS CARROL, ALICE IN WONDERLAND
 Job cpu time:  0 days  0 hours 14 minutes 55.8 seconds.
 File lengths (MBytes):  RWF=     56 Int=      0 D2E=      0 Chk=      4 Scr=      1
 Normal termination of Gaussian 09 at Tue Apr 16 01:57:51 2019.
