 Entering Gaussian System, Link 0=g09
 Input=/home/asarotti.iquir/SCF3/01_RSR_Levo01_OPTB_energy_b3lyp_smd.gjc
 Output=/home/asarotti.iquir/SCF3/01_RSR_Levo01_OPTB_energy_b3lyp_smd.log
 Initial command:
 /share/apps/Gaussian09/EM64T.SSE4.2-enabled/g09/l1.exe /tmp/Gau-5553.inp -scrdir=/tmp/
 Entering Link 1 = /share/apps/Gaussian09/EM64T.SSE4.2-enabled/g09/l1.exe PID=      5554.
  
 Copyright (c) 1988,1990,1992,1993,1995,1998,2003,2009,2011,
            Gaussian, Inc.  All Rights Reserved.
  
 This is part of the Gaussian(R) 09 program.  It is based on
 the Gaussian(R) 03 system (copyright 2003, Gaussian, Inc.),
 the Gaussian(R) 98 system (copyright 1998, Gaussian, Inc.),
 the Gaussian(R) 94 system (copyright 1995, Gaussian, Inc.),
 the Gaussian 92(TM) system (copyright 1992, Gaussian, Inc.),
 the Gaussian 90(TM) system (copyright 1990, Gaussian, Inc.),
 the Gaussian 88(TM) system (copyright 1988, Gaussian, Inc.),
 the Gaussian 86(TM) system (copyright 1986, Carnegie Mellon
 University), and the Gaussian 82(TM) system (copyright 1983,
 Carnegie Mellon University). Gaussian is a federally registered
 trademark of Gaussian, Inc.
  
 This software contains proprietary and confidential information,
 including trade secrets, belonging to Gaussian, Inc.
  
 This software is provided under written license and may be
 used, copied, transmitted, or stored only in accord with that
 written license.
  
 The following legend is applicable only to US Government
 contracts under FAR:
  
                    RESTRICTED RIGHTS LEGEND
  
 Use, reproduction and disclosure by the US Government is
 subject to restrictions as set forth in subparagraphs (a)
 and (c) of the Commercial Computer Software - Restricted
 Rights clause in FAR 52.227-19.
  
 Gaussian, Inc.
 340 Quinnipiac St., Bldg. 40, Wallingford CT 06492
  
  
 ---------------------------------------------------------------
 Warning -- This program may not be used in any manner that
 competes with the business of Gaussian, Inc. or will provide
 assistance to any competitor of Gaussian, Inc.  The licensee
 of this program is prohibited from giving any competitor of
 Gaussian, Inc. access to this program.  By using this program,
 the user acknowledges that Gaussian, Inc. is engaged in the
 business of creating and licensing software in the field of
 computational chemistry and represents and warrants to the
 licensee that it is not a competitor of Gaussian, Inc. and that
 it will not use this program in any manner prohibited above.
 ---------------------------------------------------------------
  

 Cite this work as:
 Gaussian 09, Revision C.01,
 M. J. Frisch, G. W. Trucks, H. B. Schlegel, G. E. Scuseria, 
 M. A. Robb, J. R. Cheeseman, G. Scalmani, V. Barone, B. Mennucci, 
 G. A. Petersson, H. Nakatsuji, M. Caricato, X. Li, H. P. Hratchian, 
 A. F. Izmaylov, J. Bloino, G. Zheng, J. L. Sonnenberg, M. Hada, 
 M. Ehara, K. Toyota, R. Fukuda, J. Hasegawa, M. Ishida, T. Nakajima, 
 Y. Honda, O. Kitao, H. Nakai, T. Vreven, J. A. Montgomery, Jr., 
 J. E. Peralta, F. Ogliaro, M. Bearpark, J. J. Heyd, E. Brothers, 
 K. N. Kudin, V. N. Staroverov, T. Keith, R. Kobayashi, J. Normand, 
 K. Raghavachari, A. Rendell, J. C. Burant, S. S. Iyengar, J. Tomasi, 
 M. Cossi, N. Rega, J. M. Millam, M. Klene, J. E. Knox, J. B. Cross, 
 V. Bakken, C. Adamo, J. Jaramillo, R. Gomperts, R. E. Stratmann, 
 O. Yazyev, A. J. Austin, R. Cammi, C. Pomelli, J. W. Ochterski, 
 R. L. Martin, K. Morokuma, V. G. Zakrzewski, G. A. Voth, 
 P. Salvador, J. J. Dannenberg, S. Dapprich, A. D. Daniels, 
 O. Farkas, J. B. Foresman, J. V. Ortiz, J. Cioslowski, 
 and D. J. Fox, Gaussian, Inc., Wallingford CT, 2010.
 
 ******************************************
 Gaussian 09:  EM64L-G09RevC.01 23-Sep-2011
                15-Apr-2019 
 ******************************************
 %nprocshared=4
 Will use up to    4 processors via shared memory.
 -----------------------------------------------------------
 # B3LYP/6-31+G** test scrf=(pcm,solvent=water,smd,dovacuum)
 -----------------------------------------------------------
 1/38=1/1;
 2/12=2,17=6,18=5,40=1/2;
 3/5=1,6=6,7=111,11=2,16=1,25=1,30=1,70=32101,72=1,74=-5/1,2,3;
 4//1;
 5/5=2,38=5,53=1/2;
 6/7=2,8=2,9=2,10=2,28=1/1;
 99/5=1,9=1/99;
 -------
 comment
 -------
 Charge =  0 Multiplicity = 1
 Symbolic Z-Matrix:
 6                    -2.15981   0.47098  -0.64307 
 6                    -1.15854   0.95746   0.4048 
 6                    -0.88498  -1.23671   0.24103 
 6                     1.19882   0.14605   0.05022 
 6                     0.58194  -1.22705  -0.26003 
 6                     0.226     1.30193  -0.19763 
 8                    -1.06708  -0.23112   1.22486 
 8                    -1.7664   -0.90024  -0.83437 
 8                     0.70216   2.49568   0.41785 
 8                     2.3747    0.41185  -0.70661 
 8                     1.37428  -2.27397   0.29691 
 1                    -2.09878   0.99961  -1.59782 
 1                    -3.18678   0.51795  -0.2625 
 1                    -1.51789   1.77631   1.02886 
 1                    -1.15888  -2.20652   0.66691 
 1                     1.43027   0.16315   1.12582 
 1                     0.58292  -1.40655  -1.33845 
 1                     0.13511   1.455    -1.2836 
 1                     1.61433   2.61558   0.10185 
 1                     3.02851  -0.26394  -0.46211 
 1                     1.40934  -2.14403   1.26008 
 
                          Input orientation:                          
 ---------------------------------------------------------------------
 Center     Atomic      Atomic             Coordinates (Angstroms)
 Number     Number       Type             X           Y           Z
 ---------------------------------------------------------------------
      1          6           0       -2.159809    0.470977   -0.643069
      2          6           0       -1.158536    0.957455    0.404799
      3          6           0       -0.884983   -1.236705    0.241030
      4          6           0        1.198823    0.146051    0.050220
      5          6           0        0.581942   -1.227051   -0.260025
      6          6           0        0.226002    1.301925   -0.197632
      7          8           0       -1.067079   -0.231120    1.224855
      8          8           0       -1.766400   -0.900237   -0.834373
      9          8           0        0.702156    2.495675    0.417845
     10          8           0        2.374701    0.411846   -0.706608
     11          8           0        1.374276   -2.273974    0.296907
     12          1           0       -2.098783    0.999609   -1.597815
     13          1           0       -3.186780    0.517947   -0.262501
     14          1           0       -1.517893    1.776312    1.028862
     15          1           0       -1.158882   -2.206516    0.666907
     16          1           0        1.430267    0.163149    1.125823
     17          1           0        0.582922   -1.406551   -1.338454
     18          1           0        0.135108    1.455002   -1.283595
     19          1           0        1.614325    2.615583    0.101854
     20          1           0        3.028508   -0.263941   -0.462106
     21          1           0        1.409344   -2.144027    1.260081
 ---------------------------------------------------------------------
                    Distance matrix (angstroms):
                    1          2          3          4          5
     1  C    0.000000
     2  C    1.528802   0.000000
     3  C    2.307161   2.217203   0.000000
     4  C    3.444798   2.518183   2.508121   0.000000
     5  C    3.247648   2.871118   1.550167   1.536946   0.000000
     6  C    2.565343   1.548718   2.805593   1.530966   2.554664
     7  O    2.275113   1.446916   1.418546   2.579988   2.432286
     8  O    1.439304   2.314317   1.430594   3.266462   2.439548
     9  O    3.662756   2.414222   4.059672   2.429518   3.785848
    10  O    4.535341   3.743885   3.773762   1.423420   2.469697
    11  O    4.572534   4.107178   2.486624   2.438885   1.426189
    12  H    1.093031   2.212759   3.139389   3.784017   3.732825
    13  H    1.096224   2.179961   2.937791   4.412439   4.153106
    14  H    2.216147   1.090467   3.177975   3.316027   3.884678
    15  H    3.144338   3.174809   1.094041   3.387277   2.202050
    16  H    4.014023   2.802267   2.846547   1.100355   2.138431
    17  H    3.395769   3.414693   2.162952   2.172170   1.093266
    18  H    2.577833   2.184432   3.257354   2.150327   2.905299
    19  H    4.404354   3.244984   4.594130   2.504775   3.995323
    20  H    5.243232   4.446872   4.093419   1.943790   2.637063
    21  H    4.816542   4.116395   2.669388   2.598565   1.958612
                    6          7          8          9         10
     6  C    0.000000
     7  O    2.458812   0.000000
     8  O    3.037206   2.275343   0.000000
     9  O    1.424982   3.349159   4.381100   0.000000
    10  O    2.380799   3.998725   4.345872   2.898990   0.000000
    11  O    3.788160   3.315804   3.609819   4.818290   3.036696
    12  H    2.730665   3.247549   2.074304   3.761164   4.599106
    13  H    3.502272   2.695638   2.087046   4.415666   5.580193
    14  H    2.184148   2.066744   3.270675   2.412352   4.475032
    15  H    3.869689   2.054732   2.080693   5.063210   4.607447
    16  H    2.120990   2.530216   3.897671   2.544024   2.076441
    17  H    2.960525   3.267215   2.455558   4.280908   2.629880
    18  H    1.100459   3.252781   3.060177   2.073510   2.537098
    19  H    1.934639   4.068756   4.966570   0.972770   2.467436
    20  H    3.221168   4.429531   4.851247   3.715065   0.971562
    21  H    3.924259   3.129397   4.002387   4.768261   3.366343
                   11         12         13         14         15
    11  O    0.000000
    12  H    5.135022   0.000000
    13  H    5.376894   1.788519   0.000000
    14  H    5.030429   2.800024   2.456885   0.000000
    15  H    2.560926   4.036288   3.521203   4.015323   0.000000
    16  H    2.574841   4.535644   4.834299   3.362045   3.539719
    17  H    2.013224   3.612259   4.367152   4.488677   2.774040
    18  H    4.235420   2.301388   3.599395   2.860614   4.345755
    19  H    4.899330   4.391744   5.251994   3.372612   5.591297
    20  H    2.711608   5.401436   6.267455   5.201479   4.752105
    21  H    0.972533   5.509716   5.525280   4.898085   2.636578
                   16         17         18         19         20
    16  H    0.000000
    17  H    3.042140   0.000000
    18  H    3.025164   2.896900   0.000000
    19  H    2.663986   4.394979   2.335487   0.000000
    20  H    2.293098   2.838034   3.464300   3.257242   0.000000
    21  H    2.311174   2.824753   4.587698   4.902795   3.020322
                   21
    21  H    0.000000
 Stoichiometry    C6H10O5
 Framework group  C1[X(C6H10O5)]
 Deg. of freedom    57
 Full point group                 C1      NOp   1
 Largest Abelian subgroup         C1      NOp   1
 Largest concise Abelian subgroup C1      NOp   1
                         Standard orientation:                         
 ---------------------------------------------------------------------
 Center     Atomic      Atomic             Coordinates (Angstroms)
 Number     Number       Type             X           Y           Z
 ---------------------------------------------------------------------
      1          6           0       -2.159809    0.470976   -0.643069
      2          6           0       -1.158536    0.957454    0.404799
      3          6           0       -0.884982   -1.236705    0.241030
      4          6           0        1.198823    0.146052    0.050220
      5          6           0        0.581943   -1.227051   -0.260025
      6          6           0        0.226001    1.301925   -0.197632
      7          8           0       -1.067079   -0.231121    1.224855
      8          8           0       -1.766400   -0.900238   -0.834373
      9          8           0        0.702155    2.495675    0.417845
     10          8           0        2.374701    0.411847   -0.706608
     11          8           0        1.374277   -2.273973    0.296907
     12          1           0       -2.098784    0.999608   -1.597815
     13          1           0       -3.186780    0.517945   -0.262501
     14          1           0       -1.517894    1.776311    1.028862
     15          1           0       -1.158881   -2.206517    0.666907
     16          1           0        1.430267    0.163150    1.125823
     17          1           0        0.582923   -1.406551   -1.338454
     18          1           0        0.135107    1.455002   -1.283595
     19          1           0        1.614324    2.615584    0.101854
     20          1           0        3.028508   -0.263940   -0.462106
     21          1           0        1.409345   -2.144026    1.260081
 ---------------------------------------------------------------------
 Rotational constants (GHZ):      1.3990455      1.2579543      0.8032166
 Standard basis: 6-31+G(d,p) (6D, 7F)
 There are   259 symmetry adapted basis functions of A   symmetry.
 Integral buffers will be    131072 words long.
 Raffenetti 2 integral format.
 Two-electron integral symmetry is turned on.
   259 basis functions,   422 primitive gaussians,   259 cartesian basis functions
    43 alpha electrons       43 beta electrons
       nuclear repulsion energy       716.9642609634 Hartrees.
 NAtoms=   21 NActive=   21 NUniq=   21 SFac= 1.00D+00 NAtFMM=   60 NAOKFM=F Big=F
 ------------------------------------------------------------------------------
 Polarizable Continuum Model (PCM)
 =================================
 Model                : C-PCM.
 Atomic radii         : SMD-Coulomb.
 Polarization charges : Total charges.
 Charge compensation  : None.
 Solution method      : Matrix inversion.
 Cavity type          : VdW (van der Waals Surface) (Alpha=1.000).
 Cavity algorithm     : GePol (No added spheres)
                        Default sphere list used, NSphG=   21.
                        Lebedev-Laikov grids with approx.  5.0 points / Ang**2.
                        Smoothing algorithm: Karplus/York (Gamma=1.0000).
                        Polarization charges: spherical gaussians, with
                                              point-specific exponents (IZeta= 3).
                        Self-potential: point-specific (ISelfS= 7).
                        Self-field    : sphere-specific E.n sum rule (ISelfD= 2).
 Solvent              : Water, Eps=  78.355300 Eps(inf)=   1.777849
 ------------------------------------------------------------------------------
 ------------------------------------------------------------------------------
 Atomic radii for non-electrostatic terms: SMD-CDS.
 ------------------------------------------------------------------------------
 Nuclear repulsion after PCM non-electrostatic terms =      716.9694513026 Hartrees.
 One-electron integrals computed using PRISM.
 NBasis=   259 RedAO= T  NBF=   259
 NBsUse=   259 1.00D-06 NBFU=   259
 Harris functional with IExCor=  402 diagonalized for initial guess.
 ExpMin= 4.38D-02 ExpMax= 5.48D+03 ExpMxC= 8.25D+02 IAcc=2 IRadAn=         4 AccDes= 0.00D+00
 HarFok:  IExCor=  402 AccDes= 0.00D+00 IRadAn=         4 IDoV= 1
 ScaDFX=  1.000000  1.000000  1.000000  1.000000
 FoFCou: FMM=F IPFlag=           0 FMFlag=      100000 FMFlg1=           0
         NFxFlg=           0 DoJE=T BraDBF=F KetDBF=T FulRan=T
         Omega=  0.000000  0.000000  1.000000  0.000000  0.000000 ICntrl=     500 IOpCl=  0
         NMat0=    1 NMatS0=    1 NMatT0=    0 NMatD0=    1 NMtDS0=    0 NMtDT0=    0
         I1Cent=           4 NGrid=           0.
 Petite list used in FoFCou.
 Initial guess orbital symmetries:
       Occupied  (A) (A) (A) (A) (A) (A) (A) (A) (A) (A) (A) (A)
                 (A) (A) (A) (A) (A) (A) (A) (A) (A) (A) (A) (A)
                 (A) (A) (A) (A) (A) (A) (A) (A) (A) (A) (A) (A)
                 (A) (A) (A) (A) (A) (A) (A)
       Virtual   (A) (A) (A) (A) (A) (A) (A) (A) (A) (A) (A) (A)
                 (A) (A) (A) (A) (A) (A) (A) (A) (A) (A) (A) (A)
                 (A) (A) (A) (A) (A) (A) (A) (A) (A) (A) (A) (A)
                 (A) (A) (A) (A) (A) (A) (A) (A) (A) (A) (A) (A)
                 (A) (A) (A) (A) (A) (A) (A) (A) (A) (A) (A) (A)
                 (A) (A) (A) (A) (A) (A) (A) (A) (A) (A) (A) (A)
                 (A) (A) (A) (A) (A) (A) (A) (A) (A) (A) (A) (A)
                 (A) (A) (A) (A) (A) (A) (A) (A) (A) (A) (A) (A)
                 (A) (A) (A) (A) (A) (A) (A) (A) (A) (A) (A) (A)
                 (A) (A) (A) (A) (A) (A) (A) (A) (A) (A) (A) (A)
                 (A) (A) (A) (A) (A) (A) (A) (A) (A) (A) (A) (A)
                 (A) (A) (A) (A) (A) (A) (A) (A) (A) (A) (A) (A)
                 (A) (A) (A) (A) (A) (A) (A) (A) (A) (A) (A) (A)
                 (A) (A) (A) (A) (A) (A) (A) (A) (A) (A) (A) (A)
                 (A) (A) (A) (A) (A) (A) (A) (A) (A) (A) (A) (A)
                 (A) (A) (A) (A) (A) (A) (A) (A) (A) (A) (A) (A)
                 (A) (A) (A) (A) (A) (A) (A) (A) (A) (A) (A) (A)
                 (A) (A) (A) (A) (A) (A) (A) (A) (A) (A) (A) (A)
 The electronic state of the initial guess is 1-A.
 Requested convergence on RMS density matrix=1.00D-08 within 128 cycles.
 Requested convergence on MAX density matrix=1.00D-06.
 Requested convergence on             energy=1.00D-06.
 No special actions if energy rises.
 Error on total polarization charges =  0.05943
 SCF Done:  E(RB3LYP) =  -610.804774874     A.U. after   12 cycles
             Convg  =    0.4367D-08             -V/T =  2.0090
 SMD-CDS (non-electrostatic) energy       (kcal/mol) =       3.26
 (included in total energy above)

 **********************************************************************

            Population analysis using the SCF density.

 **********************************************************************

 Orbital symmetries:
       Occupied  (A) (A) (A) (A) (A) (A) (A) (A) (A) (A) (A) (A)
                 (A) (A) (A) (A) (A) (A) (A) (A) (A) (A) (A) (A)
                 (A) (A) (A) (A) (A) (A) (A) (A) (A) (A) (A) (A)
                 (A) (A) (A) (A) (A) (A) (A)
       Virtual   (A) (A) (A) (A) (A) (A) (A) (A) (A) (A) (A) (A)
                 (A) (A) (A) (A) (A) (A) (A) (A) (A) (A) (A) (A)
                 (A) (A) (A) (A) (A) (A) (A) (A) (A) (A) (A) (A)
                 (A) (A) (A) (A) (A) (A) (A) (A) (A) (A) (A) (A)
                 (A) (A) (A) (A) (A) (A) (A) (A) (A) (A) (A) (A)
                 (A) (A) (A) (A) (A) (A) (A) (A) (A) (A) (A) (A)
                 (A) (A) (A) (A) (A) (A) (A) (A) (A) (A) (A) (A)
                 (A) (A) (A) (A) (A) (A) (A) (A) (A) (A) (A) (A)
                 (A) (A) (A) (A) (A) (A) (A) (A) (A) (A) (A) (A)
                 (A) (A) (A) (A) (A) (A) (A) (A) (A) (A) (A) (A)
                 (A) (A) (A) (A) (A) (A) (A) (A) (A) (A) (A) (A)
                 (A) (A) (A) (A) (A) (A) (A) (A) (A) (A) (A) (A)
                 (A) (A) (A) (A) (A) (A) (A) (A) (A) (A) (A) (A)
                 (A) (A) (A) (A) (A) (A) (A) (A) (A) (A) (A) (A)
                 (A) (A) (A) (A) (A) (A) (A) (A) (A) (A) (A) (A)
                 (A) (A) (A) (A) (A) (A) (A) (A) (A) (A) (A) (A)
                 (A) (A) (A) (A) (A) (A) (A) (A) (A) (A) (A) (A)
                 (A) (A) (A) (A) (A) (A) (A) (A) (A) (A) (A) (A)
 The electronic state is 1-A.
 Alpha  occ. eigenvalues --  -19.18408 -19.17573 -19.17286 -19.17126 -19.17013
 Alpha  occ. eigenvalues --  -10.29458 -10.25233 -10.24842 -10.24518 -10.24495
 Alpha  occ. eigenvalues --  -10.23939  -1.11121  -1.05214  -1.03853  -1.02505
 Alpha  occ. eigenvalues --   -1.01130  -0.79339  -0.78220  -0.67581  -0.66071
 Alpha  occ. eigenvalues --   -0.62582  -0.58032  -0.55647  -0.55044  -0.51452
 Alpha  occ. eigenvalues --   -0.49290  -0.48655  -0.47772  -0.45814  -0.44641
 Alpha  occ. eigenvalues --   -0.42108  -0.41620  -0.40060  -0.38517  -0.37079
 Alpha  occ. eigenvalues --   -0.36264  -0.35672  -0.34798  -0.32133  -0.30076
 Alpha  occ. eigenvalues --   -0.29058  -0.28792  -0.25886
 Alpha virt. eigenvalues --    0.00985   0.01450   0.02191   0.02977   0.04058
 Alpha virt. eigenvalues --    0.04232   0.04587   0.05463   0.06160   0.07797
 Alpha virt. eigenvalues --    0.08482   0.09486   0.10050   0.10380   0.11296
 Alpha virt. eigenvalues --    0.11983   0.12697   0.13295   0.13970   0.14492
 Alpha virt. eigenvalues --    0.14979   0.15635   0.15950   0.16226   0.16589
 Alpha virt. eigenvalues --    0.18133   0.18453   0.19120   0.20799   0.21120
 Alpha virt. eigenvalues --    0.21361   0.22331   0.22598   0.23078   0.23722
 Alpha virt. eigenvalues --    0.24684   0.25239   0.25407   0.26624   0.27076
 Alpha virt. eigenvalues --    0.27534   0.27966   0.28331   0.29973   0.30123
 Alpha virt. eigenvalues --    0.30546   0.31407   0.31841   0.32192   0.32890
 Alpha virt. eigenvalues --    0.34452   0.34868   0.34985   0.35755   0.36349
 Alpha virt. eigenvalues --    0.36566   0.37117   0.37987   0.38976   0.40280
 Alpha virt. eigenvalues --    0.40490   0.41730   0.41960   0.43324   0.44432
 Alpha virt. eigenvalues --    0.44765   0.63968   0.67885   0.68755   0.69103
 Alpha virt. eigenvalues --    0.70472   0.72980   0.73909   0.75637   0.77891
 Alpha virt. eigenvalues --    0.78867   0.81154   0.81460   0.83262   0.85254
 Alpha virt. eigenvalues --    0.85538   0.88028   0.93195   0.94493   0.96309
 Alpha virt. eigenvalues --    0.98972   1.01450   1.03179   1.04075   1.04893
 Alpha virt. eigenvalues --    1.06554   1.07179   1.09005   1.10944   1.13716
 Alpha virt. eigenvalues --    1.18706   1.21544   1.23281   1.23705   1.24659
 Alpha virt. eigenvalues --    1.26628   1.27781   1.30083   1.31234   1.32112
 Alpha virt. eigenvalues --    1.34170   1.34476   1.36814   1.38074   1.40164
 Alpha virt. eigenvalues --    1.42791   1.43017   1.45569   1.48330   1.49527
 Alpha virt. eigenvalues --    1.51630   1.53552   1.55723   1.56995   1.58368
 Alpha virt. eigenvalues --    1.59166   1.61868   1.64434   1.65657   1.69006
 Alpha virt. eigenvalues --    1.69870   1.73405   1.75581   1.77085   1.79054
 Alpha virt. eigenvalues --    1.81195   1.81664   1.82989   1.84961   1.85892
 Alpha virt. eigenvalues --    1.86472   1.92776   1.94456   1.96696   1.97330
 Alpha virt. eigenvalues --    1.99657   2.00695   2.01366   2.04818   2.06598
 Alpha virt. eigenvalues --    2.08421   2.09777   2.12192   2.14480   2.17694
 Alpha virt. eigenvalues --    2.18516   2.20123   2.24542   2.27344   2.30264
 Alpha virt. eigenvalues --    2.31967   2.35635   2.38436   2.40058   2.43690
 Alpha virt. eigenvalues --    2.44401   2.45473   2.48022   2.49200   2.52932
 Alpha virt. eigenvalues --    2.54541   2.56841   2.58238   2.60680   2.62062
 Alpha virt. eigenvalues --    2.62845   2.66016   2.66633   2.67758   2.69660
 Alpha virt. eigenvalues --    2.69786   2.73890   2.75314   2.78107   2.80336
 Alpha virt. eigenvalues --    2.85213   2.85695   2.87185   2.88501   2.91545
 Alpha virt. eigenvalues --    2.93250   2.94617   2.97006   2.99815   3.03137
 Alpha virt. eigenvalues --    3.04818   3.06554   3.10905   3.21148   3.26483
 Alpha virt. eigenvalues --    3.33117   3.35823   3.40678   3.44677   3.48087
 Alpha virt. eigenvalues --    3.49916   3.51344   3.53749   3.55576   3.59198
 Alpha virt. eigenvalues --    4.26040   4.33657   4.38256   4.39164   4.48603
 Alpha virt. eigenvalues --    4.56862   4.63610   4.70670   4.75988   4.90533
 Alpha virt. eigenvalues --    5.00154
          Condensed to atoms (all electrons):
              1          2          3          4          5          6
     1  C    5.373827   0.014886  -0.202175   0.089660   0.010175  -0.160402
     2  C    0.014886   6.309991  -0.461125  -0.237051   0.198119  -0.053752
     3  C   -0.202175  -0.461125   5.958511  -0.000937  -0.375340   0.183290
     4  C    0.089660  -0.237051  -0.000937   5.780378  -0.237560   0.169976
     5  C    0.010175   0.198119  -0.375340  -0.237560   6.296520  -0.332148
     6  C   -0.160402  -0.053752   0.183290   0.169976  -0.332148   5.780726
     7  O   -0.036814   0.094252   0.243966  -0.028775  -0.070652  -0.110245
     8  O    0.167896  -0.168397   0.299045  -0.000476  -0.124758   0.065404
     9  O    0.025789  -0.137727  -0.000353  -0.079060   0.001985   0.270694
    10  O    0.000984   0.039509   0.021610   0.240097  -0.077105  -0.146095
    11  O    0.001741  -0.006198  -0.029719  -0.063827   0.202704   0.008319
    12  H    0.451752  -0.110713   0.016566   0.003993   0.006893  -0.003655
    13  H    0.410206  -0.028226  -0.020063   0.000528   0.004030   0.005006
    14  H    0.003666   0.316700   0.020782   0.005066  -0.000564  -0.010496
    15  H    0.004981   0.006853   0.389601   0.008598  -0.050047   0.017206
    16  H    0.012332  -0.013898  -0.023371   0.456666  -0.027719  -0.098171
    17  H    0.017820   0.004664  -0.105665  -0.078389   0.510997  -0.014638
    18  H    0.026161  -0.126636   0.003573  -0.032603   0.017404   0.407743
    19  H   -0.005547   0.027092  -0.002169  -0.041663   0.016363   0.003335
    20  H    0.000585  -0.007890   0.010635   0.016634  -0.053410   0.029564
    21  H    0.000241   0.002778  -0.041193  -0.040290   0.066309   0.001985
              7          8          9         10         11         12
     1  C   -0.036814   0.167896   0.025789   0.000984   0.001741   0.451752
     2  C    0.094252  -0.168397  -0.137727   0.039509  -0.006198  -0.110713
     3  C    0.243966   0.299045  -0.000353   0.021610  -0.029719   0.016566
     4  C   -0.028775  -0.000476  -0.079060   0.240097  -0.063827   0.003993
     5  C   -0.070652  -0.124758   0.001985  -0.077105   0.202704   0.006893
     6  C   -0.110245   0.065404   0.270694  -0.146095   0.008319  -0.003655
     7  O    8.440687  -0.065551   0.016314  -0.001164  -0.002148   0.009239
     8  O   -0.065551   8.421634  -0.001279  -0.003861   0.000825  -0.045834
     9  O    0.016314  -0.001279   8.345364  -0.013649   0.000113   0.000741
    10  O   -0.001164  -0.003861  -0.013649   8.372648  -0.003262   0.000079
    11  O   -0.002148   0.000825   0.000113  -0.003262   8.314201   0.000010
    12  H    0.009239  -0.045834   0.000741   0.000079   0.000010   0.534528
    13  H   -0.001942  -0.048858  -0.000167  -0.000018   0.000017  -0.039801
    14  H   -0.029939   0.007882  -0.001888  -0.000336  -0.000062   0.001902
    15  H   -0.048857  -0.043902  -0.000024  -0.000593  -0.000955  -0.000259
    16  H    0.010549  -0.000306   0.001668  -0.053480  -0.010230   0.000000
    17  H    0.011149  -0.003996   0.000186  -0.000540  -0.065835  -0.000071
    18  H    0.010110  -0.000417  -0.046871   0.000275  -0.000279   0.001640
    19  H   -0.001555   0.000110   0.241027   0.013982  -0.000056  -0.000006
    20  H    0.000329   0.000005   0.000973   0.246200   0.008978   0.000000
    21  H    0.004751  -0.000038  -0.000119  -0.001705   0.249898   0.000000
             13         14         15         16         17         18
     1  C    0.410206   0.003666   0.004981   0.012332   0.017820   0.026161
     2  C   -0.028226   0.316700   0.006853  -0.013898   0.004664  -0.126636
     3  C   -0.020063   0.020782   0.389601  -0.023371  -0.105665   0.003573
     4  C    0.000528   0.005066   0.008598   0.456666  -0.078389  -0.032603
     5  C    0.004030  -0.000564  -0.050047  -0.027719   0.510997   0.017404
     6  C    0.005006  -0.010496   0.017206  -0.098171  -0.014638   0.407743
     7  O   -0.001942  -0.029939  -0.048857   0.010549   0.011149   0.010110
     8  O   -0.048858   0.007882  -0.043902  -0.000306  -0.003996  -0.000417
     9  O   -0.000167  -0.001888  -0.000024   0.001668   0.000186  -0.046871
    10  O   -0.000018  -0.000336  -0.000593  -0.053480  -0.000540   0.000275
    11  O    0.000017  -0.000062  -0.000955  -0.010230  -0.065835  -0.000279
    12  H   -0.039801   0.001902  -0.000259   0.000000  -0.000071   0.001640
    13  H    0.556090  -0.003153   0.000584   0.000002  -0.000030   0.000293
    14  H   -0.003153   0.504420  -0.000050   0.000101   0.000013   0.002206
    15  H    0.000584  -0.000050   0.541736  -0.000226   0.000537   0.000002
    16  H    0.000002   0.000101  -0.000226   0.565630   0.004145   0.004855
    17  H   -0.000030   0.000013   0.000537   0.004145   0.529839   0.002002
    18  H    0.000293   0.002206   0.000002   0.004855   0.002002   0.564695
    19  H    0.000004   0.000265   0.000000  -0.001058  -0.000022  -0.004606
    20  H    0.000000   0.000004  -0.000003  -0.005281  -0.000274   0.000083
    21  H    0.000000   0.000003  -0.000181   0.004510   0.006516   0.000007
             19         20         21
     1  C   -0.005547   0.000585   0.000241
     2  C    0.027092  -0.007890   0.002778
     3  C   -0.002169   0.010635  -0.041193
     4  C   -0.041663   0.016634  -0.040290
     5  C    0.016363  -0.053410   0.066309
     6  C    0.003335   0.029564   0.001985
     7  O   -0.001555   0.000329   0.004751
     8  O    0.000110   0.000005  -0.000038
     9  O    0.241027   0.000973  -0.000119
    10  O    0.013982   0.246200  -0.001705
    11  O   -0.000056   0.008978   0.249898
    12  H   -0.000006   0.000000   0.000000
    13  H    0.000004   0.000000   0.000000
    14  H    0.000265   0.000004   0.000003
    15  H    0.000000  -0.000003  -0.000181
    16  H   -0.001058  -0.005281   0.004510
    17  H   -0.000022  -0.000274   0.006516
    18  H   -0.004606   0.000083   0.000007
    19  H    0.351087  -0.000646  -0.000001
    20  H   -0.000646   0.338966  -0.000034
    21  H   -0.000001  -0.000034   0.343772
 Mulliken atomic charges:
              1
     1  C   -0.207764
     2  C    0.336770
     3  C    0.114532
     4  C    0.069036
     5  C    0.017802
     6  C   -0.013646
     7  O   -0.443705
     8  O   -0.455128
     9  O   -0.623718
    10  O   -0.633578
    11  O   -0.604236
    12  H    0.172994
    13  H    0.165497
    14  H    0.183477
    15  H    0.174999
    16  H    0.173282
    17  H    0.181589
    18  H    0.170362
    19  H    0.404063
    20  H    0.414580
    21  H    0.402791
 Sum of Mulliken atomic charges =   0.00000
 Mulliken charges with hydrogens summed into heavy atoms:
              1
     1  C    0.130727
     2  C    0.520247
     3  C    0.289531
     4  C    0.242317
     5  C    0.199392
     6  C    0.156717
     7  O   -0.443705
     8  O   -0.455128
     9  O   -0.219655
    10  O   -0.218998
    11  O   -0.201445
 Sum of Mulliken charges with hydrogens summed into heavy atoms =   0.00000
 Electronic spatial extent (au):  <R**2>=           1515.5772
 Charge=              0.0000 electrons
 Dipole moment (field-independent basis, Debye):
    X=              0.6533    Y=              0.5949    Z=              0.7184  Tot=              1.1388
 Quadrupole moment (field-independent basis, Debye-Ang):
   XX=            -60.1424   YY=            -72.5142   ZZ=            -67.0906
   XY=             -3.6720   XZ=              4.2217   YZ=             -7.1610
 Traceless Quadrupole moment (field-independent basis, Debye-Ang):
   XX=              6.4400   YY=             -5.9318   ZZ=             -0.5082
   XY=             -3.6720   XZ=              4.2217   YZ=             -7.1610
 Octapole moment (field-independent basis, Debye-Ang**2):
  XXX=             19.3834  YYY=              0.1805  ZZZ=              1.2927  XYY=             -4.3512
  XXY=             13.7620  XXZ=             10.6957  XZZ=              7.2558  YZZ=             -5.9533
  YYZ=              3.4038  XYZ=              0.8269
 Hexadecapole moment (field-independent basis, Debye-Ang**3):
 XXXX=           -779.1506 YYYY=           -863.7804 ZZZZ=           -236.6028 XXXY=            -29.7544
 XXXZ=             10.4318 YYYX=             55.4998 YYYZ=            -39.9297 ZZZX=             16.4125
 ZZZY=            -15.4232 XXYY=           -265.1464 XXZZ=           -192.2932 YYZZ=           -154.0240
 XXYZ=             -8.2155 YYXZ=             -3.0012 ZZXY=            -23.6459
 N-N= 7.169694513026D+02 E-N=-2.863645953941D+03  KE= 6.053367185547D+02

 Test job not archived.
 1\1\GINC-COMPUTE-10-0\SP\RB3LYP\6-31+G(d,p)\C6H10O5\ASAROTTI.IQUIR\15-
 Apr-2019\0\\# B3LYP/6-31+G** test scrf=(pcm,solvent=water,smd,dovacuum
 )\\comment\\0,1\C,0,-2.159809,0.470977,-0.643069\C,0,-1.158536,0.95745
 5,0.404799\C,0,-0.884983,-1.236705,0.24103\C,0,1.198823,0.146051,0.050
 22\C,0,0.581942,-1.227051,-0.260025\C,0,0.226002,1.301925,-0.197632\O,
 0,-1.067079,-0.23112,1.224855\O,0,-1.7664,-0.900237,-0.834373\O,0,0.70
 2156,2.495675,0.417845\O,0,2.374701,0.411846,-0.706608\O,0,1.374276,-2
 .273974,0.296907\H,0,-2.098783,0.999609,-1.597815\H,0,-3.18678,0.51794
 7,-0.262501\H,0,-1.517893,1.776312,1.028862\H,0,-1.158882,-2.206516,0.
 666907\H,0,1.430267,0.163149,1.125823\H,0,0.582922,-1.406551,-1.338454
 \H,0,0.135108,1.455002,-1.283595\H,0,1.614325,2.615583,0.101854\H,0,3.
 028508,-0.263941,-0.462106\H,0,1.409344,-2.144027,1.260081\\Version=EM
 64L-G09RevC.01\State=1-A\HF=-610.8047749\RMSD=4.367e-09\Dipole=0.25702
 16,0.2340422,0.2826584\Quadrupole=4.7879807,-4.4101507,-0.37783,-2.730
 0213,3.138753,-5.3240431\PG=C01 [X(C6H10O5)]\\@


 The best way to pay for a lovely moment is to enjoy it.
 -- Richard Bach
 Job cpu time:  0 days  0 hours 12 minutes  3.3 seconds.
 File lengths (MBytes):  RWF=     56 Int=      0 D2E=      0 Chk=      4 Scr=      1
 Normal termination of Gaussian 09 at Mon Apr 15 17:52:21 2019.
