 Entering Gaussian System, Link 0=g09
 Input=/home/mmarcarino.iquir/NMR/01_RSR_Levo11_OPTB_nmr.gjc
 Output=/home/mmarcarino.iquir/NMR/01_RSR_Levo11_OPTB_nmr.log
 Initial command:
 /share/apps/Gaussian09/EM64T.SSE4.2-enabled/g09/l1.exe /tmp/Gau-5436.inp -scrdir=/tmp/
 Entering Link 1 = /share/apps/Gaussian09/EM64T.SSE4.2-enabled/g09/l1.exe PID=      5437.
  
 Copyright (c) 1988,1990,1992,1993,1995,1998,2003,2009,2011,
            Gaussian, Inc.  All Rights Reserved.
  
 This is part of the Gaussian(R) 09 program.  It is based on
 the Gaussian(R) 03 system (copyright 2003, Gaussian, Inc.),
 the Gaussian(R) 98 system (copyright 1998, Gaussian, Inc.),
 the Gaussian(R) 94 system (copyright 1995, Gaussian, Inc.),
 the Gaussian 92(TM) system (copyright 1992, Gaussian, Inc.),
 the Gaussian 90(TM) system (copyright 1990, Gaussian, Inc.),
 the Gaussian 88(TM) system (copyright 1988, Gaussian, Inc.),
 the Gaussian 86(TM) system (copyright 1986, Carnegie Mellon
 University), and the Gaussian 82(TM) system (copyright 1983,
 Carnegie Mellon University). Gaussian is a federally registered
 trademark of Gaussian, Inc.
  
 This software contains proprietary and confidential information,
 including trade secrets, belonging to Gaussian, Inc.
  
 This software is provided under written license and may be
 used, copied, transmitted, or stored only in accord with that
 written license.
  
 The following legend is applicable only to US Government
 contracts under FAR:
  
                    RESTRICTED RIGHTS LEGEND
  
 Use, reproduction and disclosure by the US Government is
 subject to restrictions as set forth in subparagraphs (a)
 and (c) of the Commercial Computer Software - Restricted
 Rights clause in FAR 52.227-19.
  
 Gaussian, Inc.
 340 Quinnipiac St., Bldg. 40, Wallingford CT 06492
  
  
 ---------------------------------------------------------------
 Warning -- This program may not be used in any manner that
 competes with the business of Gaussian, Inc. or will provide
 assistance to any competitor of Gaussian, Inc.  The licensee
 of this program is prohibited from giving any competitor of
 Gaussian, Inc. access to this program.  By using this program,
 the user acknowledges that Gaussian, Inc. is engaged in the
 business of creating and licensing software in the field of
 computational chemistry and represents and warrants to the
 licensee that it is not a competitor of Gaussian, Inc. and that
 it will not use this program in any manner prohibited above.
 ---------------------------------------------------------------
  

 Cite this work as:
 Gaussian 09, Revision C.01,
 M. J. Frisch, G. W. Trucks, H. B. Schlegel, G. E. Scuseria, 
 M. A. Robb, J. R. Cheeseman, G. Scalmani, V. Barone, B. Mennucci, 
 G. A. Petersson, H. Nakatsuji, M. Caricato, X. Li, H. P. Hratchian, 
 A. F. Izmaylov, J. Bloino, G. Zheng, J. L. Sonnenberg, M. Hada, 
 M. Ehara, K. Toyota, R. Fukuda, J. Hasegawa, M. Ishida, T. Nakajima, 
 Y. Honda, O. Kitao, H. Nakai, T. Vreven, J. A. Montgomery, Jr., 
 J. E. Peralta, F. Ogliaro, M. Bearpark, J. J. Heyd, E. Brothers, 
 K. N. Kudin, V. N. Staroverov, T. Keith, R. Kobayashi, J. Normand, 
 K. Raghavachari, A. Rendell, J. C. Burant, S. S. Iyengar, J. Tomasi, 
 M. Cossi, N. Rega, J. M. Millam, M. Klene, J. E. Knox, J. B. Cross, 
 V. Bakken, C. Adamo, J. Jaramillo, R. Gomperts, R. E. Stratmann, 
 O. Yazyev, A. J. Austin, R. Cammi, C. Pomelli, J. W. Ochterski, 
 R. L. Martin, K. Morokuma, V. G. Zakrzewski, G. A. Voth, 
 P. Salvador, J. J. Dannenberg, S. Dapprich, A. D. Daniels, 
 O. Farkas, J. B. Foresman, J. V. Ortiz, J. Cioslowski, 
 and D. J. Fox, Gaussian, Inc., Wallingford CT, 2010.
 
 ******************************************
 Gaussian 09:  EM64L-G09RevC.01 23-Sep-2011
                12-Apr-2019 
 ******************************************
 %nprocshared=4
 Will use up to    4 processors via shared memory.
 ------------------------------------------------
 # mpw1pw91/6-31+g** nmr scrf=(pcm,solvent=water)
 ------------------------------------------------
 1/38=1/1;
 2/12=2,17=6,18=5,40=1/2;
 3/5=1,6=6,7=111,11=2,16=1,25=1,30=1,70=2201,72=1,74=-7/1,2,8,3;
 4//1;
 5/5=2,38=5,53=1/2;
 8/6=1,10=90,11=11/1;
 10/13=100,45=16/2;
 6/7=2,8=2,9=2,10=2,28=1/1;
 99/9=1/99;
 -------
 comment
 -------
 Charge =  0 Multiplicity = 1
 Symbolic Z-Matrix:
 6                     1.93189   0.71605   0.10409 
 6                     0.68265   1.07995  -0.7154 
 6                     0.74587  -1.13135  -0.57564 
 6                    -0.85312   0.04132   1.03401 
 6                    -0.53082  -1.27428   0.27763 
 6                    -0.58828   1.26534   0.12553 
 8                     0.53088  -0.1014   -1.52717 
 8                     1.86433  -0.72192   0.19914 
 8                    -1.65396   1.41618  -0.81798 
 8                    -0.0869    0.22449   2.21925 
 8                    -1.61576  -1.63142  -0.57328 
 1                     1.9373    1.14891   1.10554 
 1                     2.84619   0.99557  -0.43011 
 1                     0.8248    1.9307   -1.38393 
 1                     0.97721  -2.0574   -1.10881 
 1                    -1.92708   0.01585   1.27465 
 1                    -0.40898  -2.09455   0.99416 
 1                    -0.48586   2.15903   0.75587 
 1                    -2.45439   1.65947  -0.32455 
 1                    -0.19424  -0.5669    2.77106 
 1                    -1.75279  -0.86024  -1.15493 
 
                          Input orientation:                          
 ---------------------------------------------------------------------
 Center     Atomic      Atomic             Coordinates (Angstroms)
 Number     Number       Type             X           Y           Z
 ---------------------------------------------------------------------
      1          6           0        1.931893    0.716047    0.104087
      2          6           0        0.682645    1.079950   -0.715398
      3          6           0        0.745874   -1.131345   -0.575642
      4          6           0       -0.853120    0.041315    1.034012
      5          6           0       -0.530819   -1.274277    0.277632
      6          6           0       -0.588280    1.265336    0.125531
      7          8           0        0.530876   -0.101401   -1.527168
      8          8           0        1.864325   -0.721918    0.199140
      9          8           0       -1.653956    1.416181   -0.817983
     10          8           0       -0.086900    0.224487    2.219252
     11          8           0       -1.615760   -1.631423   -0.573279
     12          1           0        1.937303    1.148912    1.105540
     13          1           0        2.846188    0.995566   -0.430114
     14          1           0        0.824795    1.930702   -1.383932
     15          1           0        0.977212   -2.057403   -1.108805
     16          1           0       -1.927078    0.015851    1.274654
     17          1           0       -0.408978   -2.094552    0.994164
     18          1           0       -0.485855    2.159032    0.755871
     19          1           0       -2.454394    1.659467   -0.324545
     20          1           0       -0.194239   -0.566898    2.771063
     21          1           0       -1.752791   -0.860239   -1.154928
 ---------------------------------------------------------------------
                    Distance matrix (angstroms):
                    1          2          3          4          5
     1  C    0.000000
     2  C    1.537726   0.000000
     3  C    2.298158   2.216609   0.000000
     4  C    3.012693   2.549073   2.553997   0.000000
     5  C    3.171192   2.828602   1.542223   1.551377   0.000000
     6  C    2.579428   1.535181   2.831199   1.547160   2.544813
     7  O    2.300448   1.441386   1.418595   2.914697   2.400029
     8  O    1.442686   2.340828   1.420863   2.943475   2.459263
     9  O    3.768118   2.362896   3.508248   2.441614   3.114542
    10  O    2.964975   3.152172   3.216089   1.423179   2.492638
    11  O    4.307584   3.557303   2.414001   2.441937   1.424324
    12  H    1.091013   2.212405   3.073345   3.003056   3.556530
    13  H    1.095188   2.183902   2.992699   4.091349   4.130045
    14  H    2.217037   1.091294   3.167916   3.497375   3.856212
    15  H    3.174043   3.175614   1.093327   3.513744   2.193092
    16  H    4.092940   3.450111   3.447365   1.100883   2.146630
    17  H    3.764489   3.767188   2.173877   2.181921   1.095954
    18  H    2.890075   2.166666   3.757215   2.167250   3.466748
    19  H    4.507026   3.213973   4.253633   2.651070   3.559440
    20  H    3.644056   3.954294   3.521768   1.954838   2.613593
    21  H    4.200797   3.144657   2.579224   2.532522   1.927919
                    6          7          8          9         10
     6  C    0.000000
     7  O    2.419069   0.000000
     8  O    3.157510   2.267877   0.000000
     9  O    1.431306   2.753087   4.240791   0.000000
    10  O    2.391321   3.810973   2.963750   3.619474   0.000000
    11  O    3.152025   2.803376   3.678970   3.057651   3.685111
    12  H    2.711557   3.236120   2.080118   4.082709   2.488436
    13  H    3.489568   2.787030   2.075998   4.536370   4.026997
    14  H    2.172089   2.058239   3.259315   2.594077   4.089657
    15  H    3.874912   2.049436   2.069108   4.367311   4.173167
    16  H    2.161961   3.729007   4.009460   2.532716   2.078954
    17  H    3.474985   3.348595   2.772020   4.142354   2.642445
    18  H    1.098413   3.369802   3.759411   2.096021   2.458274
    19  H    1.959666   3.668623   4.959493   0.971272   3.759667
    20  H    3.242096   4.383751   3.297955   4.352543   0.970725
    21  H    2.741118   2.435063   3.864733   2.303343   3.916237
                   11         12         13         14         15
    11  O    0.000000
    12  H    4.813829   0.000000
    13  H    5.179821   1.791039   0.000000
    14  H    4.393427   2.836607   2.422866   0.000000
    15  H    2.681744   4.013173   3.643393   4.000488   0.000000
    16  H    2.495052   4.030616   5.162378   4.278731   4.291172
    17  H    2.031671   4.004684   4.708875   4.835308   2.519004
    18  H    4.172634   2.648453   3.723268   2.519662   4.836931
    19  H    3.405163   4.646807   5.343040   3.456725   5.119190
    20  H    3.786629   3.203349   4.683271   4.953829   4.318249
    21  H    0.975612   4.771079   5.011983   3.806014   2.981316
                   16         17         18         19         20
    16  H    0.000000
    17  H    2.614785   0.000000
    18  H    2.634290   4.260947   0.000000
    19  H    2.353077   4.473855   2.300437   0.000000
    20  H    2.362534   2.353128   3.402460   4.432583   0.000000
    21  H    2.588586   2.819212   3.791079   2.744212   4.234211
                   21
    21  H    0.000000
 Stoichiometry    C6H10O5
 Framework group  C1[X(C6H10O5)]
 Deg. of freedom    57
 Full point group                 C1      NOp   1
 Largest Abelian subgroup         C1      NOp   1
 Largest concise Abelian subgroup C1      NOp   1
                         Standard orientation:                         
 ---------------------------------------------------------------------
 Center     Atomic      Atomic             Coordinates (Angstroms)
 Number     Number       Type             X           Y           Z
 ---------------------------------------------------------------------
      1          6           0       -1.931893   -0.716048    0.104087
      2          6           0       -0.682645   -1.079950   -0.715398
      3          6           0       -0.745874    1.131345   -0.575642
      4          6           0        0.853120   -0.041315    1.034012
      5          6           0        0.530818    1.274277    0.277632
      6          6           0        0.588281   -1.265336    0.125531
      7          8           0       -0.530876    0.101401   -1.527168
      8          8           0       -1.864325    0.721917    0.199140
      9          8           0        1.653957   -1.416180   -0.817983
     10          8           0        0.086900   -0.224487    2.219252
     11          8           0        1.615759    1.631424   -0.573279
     12          1           0       -1.937302   -1.148913    1.105540
     13          1           0       -2.846188   -0.995567   -0.430114
     14          1           0       -0.824794   -1.930702   -1.383932
     15          1           0       -0.977213    2.057403   -1.108805
     16          1           0        1.927078   -0.015850    1.274654
     17          1           0        0.408977    2.094552    0.994164
     18          1           0        0.485856   -2.159032    0.755871
     19          1           0        2.454395   -1.659466   -0.324545
     20          1           0        0.194239    0.566898    2.771063
     21          1           0        1.752791    0.860240   -1.154928
 ---------------------------------------------------------------------
 Rotational constants (GHZ):      1.4229800      1.2040946      1.1816273
 Standard basis: 6-31+G(d,p) (6D, 7F)
 There are   259 symmetry adapted basis functions of A   symmetry.
 Integral buffers will be    131072 words long.
 Raffenetti 2 integral format.
 Two-electron integral symmetry is turned on.
   259 basis functions,   422 primitive gaussians,   259 cartesian basis functions
    43 alpha electrons       43 beta electrons
       nuclear repulsion energy       737.3097094026 Hartrees.
 NAtoms=   21 NActive=   21 NUniq=   21 SFac= 1.00D+00 NAtFMM=   60 NAOKFM=F Big=F
 ------------------------------------------------------------------------------
 Polarizable Continuum Model (PCM)
 =================================
 Model                : PCM.
 Atomic radii         : UFF (Universal Force Field).
 Polarization charges : Total charges.
 Charge compensation  : None.
 Solution method      : Matrix inversion.
 Cavity type          : Scaled VdW (van der Waals Surface) (Alpha=1.100).
 Cavity algorithm     : GePol (No added spheres)
                        Default sphere list used, NSphG=   21.
                        Lebedev-Laikov grids with approx.  5.0 points / Ang**2.
                        Smoothing algorithm: Karplus/York (Gamma=1.0000).
                        Polarization charges: spherical gaussians, with
                                              point-specific exponents (IZeta= 3).
                        Self-potential: point-specific (ISelfS= 7).
                        Self-field    : sphere-specific E.n sum rule (ISelfD= 2).
 Solvent              : Water, Eps=  78.355300 Eps(inf)=   1.777849
 ------------------------------------------------------------------------------
 One-electron integrals computed using PRISM.
 NBasis=   259 RedAO= T  NBF=   259
 NBsUse=   259 1.00D-06 NBFU=   259
 Harris functional with IExCor=  908 diagonalized for initial guess.
 ExpMin= 4.38D-02 ExpMax= 5.48D+03 ExpMxC= 8.25D+02 IAcc=2 IRadAn=         4 AccDes= 0.00D+00
 HarFok:  IExCor=  908 AccDes= 0.00D+00 IRadAn=         4 IDoV= 1
 ScaDFX=  1.000000  1.000000  1.000000  1.000000
 FoFCou: FMM=F IPFlag=           0 FMFlag=      100000 FMFlg1=           0
         NFxFlg=           0 DoJE=T BraDBF=F KetDBF=T FulRan=T
         Omega=  0.000000  0.000000  1.000000  0.000000  0.000000 ICntrl=     500 IOpCl=  0
         NMat0=    1 NMatS0=    1 NMatT0=    0 NMatD0=    1 NMtDS0=    0 NMtDT0=    0
         I1Cent=           4 NGrid=           0.
 Petite list used in FoFCou.
 Initial guess orbital symmetries:
       Occupied  (A) (A) (A) (A) (A) (A) (A) (A) (A) (A) (A) (A)
                 (A) (A) (A) (A) (A) (A) (A) (A) (A) (A) (A) (A)
                 (A) (A) (A) (A) (A) (A) (A) (A) (A) (A) (A) (A)
                 (A) (A) (A) (A) (A) (A) (A)
       Virtual   (A) (A) (A) (A) (A) (A) (A) (A) (A) (A) (A) (A)
                 (A) (A) (A) (A) (A) (A) (A) (A) (A) (A) (A) (A)
                 (A) (A) (A) (A) (A) (A) (A) (A) (A) (A) (A) (A)
                 (A) (A) (A) (A) (A) (A) (A) (A) (A) (A) (A) (A)
                 (A) (A) (A) (A) (A) (A) (A) (A) (A) (A) (A) (A)
                 (A) (A) (A) (A) (A) (A) (A) (A) (A) (A) (A) (A)
                 (A) (A) (A) (A) (A) (A) (A) (A) (A) (A) (A) (A)
                 (A) (A) (A) (A) (A) (A) (A) (A) (A) (A) (A) (A)
                 (A) (A) (A) (A) (A) (A) (A) (A) (A) (A) (A) (A)
                 (A) (A) (A) (A) (A) (A) (A) (A) (A) (A) (A) (A)
                 (A) (A) (A) (A) (A) (A) (A) (A) (A) (A) (A) (A)
                 (A) (A) (A) (A) (A) (A) (A) (A) (A) (A) (A) (A)
                 (A) (A) (A) (A) (A) (A) (A) (A) (A) (A) (A) (A)
                 (A) (A) (A) (A) (A) (A) (A) (A) (A) (A) (A) (A)
                 (A) (A) (A) (A) (A) (A) (A) (A) (A) (A) (A) (A)
                 (A) (A) (A) (A) (A) (A) (A) (A) (A) (A) (A) (A)
                 (A) (A) (A) (A) (A) (A) (A) (A) (A) (A) (A) (A)
                 (A) (A) (A) (A) (A) (A) (A) (A) (A) (A) (A) (A)
 The electronic state of the initial guess is 1-A.
 Requested convergence on RMS density matrix=1.00D-08 within 128 cycles.
 Requested convergence on MAX density matrix=1.00D-06.
 Requested convergence on             energy=1.00D-06.
 No special actions if energy rises.
 Error on total polarization charges =  0.01144
 SCF Done:  E(RmPW1PW91) =  -610.646724885     A.U. after   12 cycles
             Convg  =    0.6510D-08             -V/T =  2.0090
 Range of M.O.s used for correlation:     1   259
 NBasis=   259 NAE=    43 NBE=    43 NFC=     0 NFV=     0
 NROrb=    259 NOA=    43 NOB=    43 NVA=   216 NVB=   216

 **** Warning!!: The largest alpha MO coefficient is  0.68527279D+02

 NEqPCM:  Using equilibrium solvation (IEInf=0, Eps=  78.3553, EpsInf=   1.7778)
          Differentiating once with respect to magnetic field using GIAOs.
          Electric field/nuclear overlap derivatives assumed to be zero.
 FoFCou: FMM=F IPFlag=           0 FMFlag=    10101102 FMFlg1=           0
         NFxFlg=    40000000 DoJE=F BraDBF=F KetDBF=T FulRan=T
         Omega=  0.000000  0.000000  1.000000  0.000000  0.000000 ICntrl=    6100 IOpCl=  0
         NMat0=    1 NMatS0=    1 NMatT0=    0 NMatD0=    1 NMtDS0=    0 NMtDT0=    0
         I1Cent=           7 NGrid=        1505.
 Symmetry not used in FoFCou.
          There are     3 degrees of freedom in the 1st order CPHF.  IDoFFX=0.
      3 vectors produced by pass  0 Test12= 3.10D-13 3.33D-08 XBig12= 1.77D+01 7.43D-01.
 AX will form     3 AO Fock derivatives at one time.
      3 vectors produced by pass  1 Test12= 3.10D-13 3.33D-08 XBig12= 4.09D-02 2.63D-02.
      3 vectors produced by pass  2 Test12= 3.10D-13 3.33D-08 XBig12= 9.58D-05 1.63D-03.
      3 vectors produced by pass  3 Test12= 3.10D-13 3.33D-08 XBig12= 4.95D-07 1.58D-04.
      3 vectors produced by pass  4 Test12= 3.10D-13 3.33D-08 XBig12= 1.42D-09 7.10D-06.
      3 vectors produced by pass  5 Test12= 3.10D-13 3.33D-08 XBig12= 5.10D-12 3.65D-07.
 Inverted reduced A of dimension    18 with in-core refinement.
 Calculating GIAO nuclear magnetic shielding tensors.
 SCF GIAO Magnetic shielding tensor (ppm):
      1  C    Isotropic =   129.7928   Anisotropy =    63.8178
   XX=   111.9719   YX=     3.8807   ZX=    -9.5204
   XY=    -1.0792   YY=   171.5869   ZY=     9.8384
   XZ=    -4.1749   YZ=     4.2259   ZZ=   105.8196
   Eigenvalues:   100.7577   116.2827   172.3380
      2  C    Isotropic =   118.2676   Anisotropy =    47.8505
   XX=   110.7817   YX=    -1.0472   ZX=   -14.3199
   XY=    -1.4637   YY=   132.3835   ZY=   -20.7383
   XZ=    -2.1380   YZ=   -30.9015   ZZ=   111.6376
   Eigenvalues:    91.2557   113.3792   150.1679
      3  C    Isotropic =    91.9939   Anisotropy =    34.4370
   XX=    99.1370   YX=    15.8563   ZX=   -23.8554
   XY=    10.9592   YY=    85.8433   ZY=     1.4781
   XZ=   -13.6288   YZ=    19.1905   ZZ=    91.0014
   Eigenvalues:    63.5606    97.4693   114.9519
      4  C    Isotropic =   120.0799   Anisotropy =    49.5862
   XX=   134.4376   YX=    -0.1929   ZX=   -27.8541
   XY=    -0.5472   YY=   100.1759   ZY=    -4.3179
   XZ=   -17.3212   YZ=    -3.5138   ZZ=   125.6263
   Eigenvalues:    98.7957   108.3067   153.1374
      5  C    Isotropic =   123.1713   Anisotropy =    45.3809
   XX=   129.4422   YX=     3.2259   ZX=   -21.7406
   XY=     1.1602   YY=   110.2957   ZY=    -3.7473
   XZ=   -24.8145   YZ=    -5.4633   ZZ=   129.7761
   Eigenvalues:   105.6456   110.4431   153.4253
      6  C    Isotropic =   123.7718   Anisotropy =    51.0589
   XX=   131.5319   YX=    -0.5811   ZX=   -26.7360
   XY=     2.9465   YY=   110.0950   ZY=    -0.8056
   XZ=   -27.6343   YZ=     3.4401   ZZ=   129.6884
   Eigenvalues:   102.9701   110.5342   157.8110
      7  O    Isotropic =   256.4166   Anisotropy =    58.0964
   XX=   245.0539   YX=    28.1475   ZX=   -36.7896
   XY=    14.3837   YY=   279.6086   ZY=    28.1793
   XZ=   -63.8229   YZ=    13.5064   ZZ=   244.5872
   Eigenvalues:   185.1303   288.9718   295.1475
      8  O    Isotropic =   265.9970   Anisotropy =   103.1928
   XX=   270.9377   YX=     5.6562   ZX=   -71.5072
   XY=    17.1544   YY=   279.4439   ZY=    18.0898
   XZ=   -68.0763   YZ=    55.0572   ZZ=   247.6095
   Eigenvalues:   176.2761   286.9228   334.7922
      9  O    Isotropic =   285.3975   Anisotropy =    59.1806
   XX=   316.8242   YX=   -15.0491   ZX=    11.5403
   XY=   -18.6306   YY=   259.4873   ZY=    20.8561
   XZ=    22.1490   YZ=    15.8202   ZZ=   279.8810
   Eigenvalues:   241.5695   289.7718   324.8512
     10  O    Isotropic =   286.5109   Anisotropy =    69.3250
   XX=   246.8244   YX=     2.1962   ZX=    -7.8311
   XY=    -4.4012   YY=   309.1675   ZY=    36.6433
   XZ=    -9.6720   YZ=    14.7552   ZZ=   303.5408
   Eigenvalues:   245.3624   281.4428   332.7276
     11  O    Isotropic =   286.8348   Anisotropy =    22.2961
   XX=   276.0946   YX=     3.9039   ZX=    -1.1569
   XY=    13.9929   YY=   292.6756   ZY=    -2.6882
   XZ=   -15.9684   YZ=    -4.2678   ZZ=   291.7341
   Eigenvalues:   270.1012   288.7043   301.6988
     12  H    Isotropic =    27.1791   Anisotropy =     5.9433
   XX=    27.0627   YX=     1.9813   ZX=     0.1448
   XY=     2.4912   YY=    26.8616   ZY=    -3.6117
   XZ=    -1.6633   YZ=    -1.9877   ZZ=    27.6130
   Eigenvalues:    23.8592    26.5368    31.1413
     13  H    Isotropic =    27.6918   Anisotropy =    11.1591
   XX=    31.5710   YX=     3.5208   ZX=     1.7700
   XY=     4.6202   YY=    28.2225   ZY=     2.3423
   XZ=     2.8667   YZ=     2.0131   ZZ=    23.2820
   Eigenvalues:    22.3703    25.5740    35.1312
     14  H    Isotropic =    26.9511   Anisotropy =     8.1737
   XX=    24.9402   YX=     1.9601   ZX=     1.7495
   XY=     0.9575   YY=    30.6937   ZY=     3.6271
   XZ=     0.9987   YZ=     2.1112   ZZ=    25.2194
   Eigenvalues:    23.5171    24.9360    32.4003
     15  H    Isotropic =    26.0829   Anisotropy =     7.6840
   XX=    24.4945   YX=    -1.0423   ZX=     0.1733
   XY=    -1.8725   YY=    29.9361   ZY=    -2.6404
   XZ=     0.1379   YZ=    -2.5973   ZZ=    23.8181
   Eigenvalues:    22.7632    24.2800    31.2056
     16  H    Isotropic =    27.7070   Anisotropy =     4.5098
   XX=    30.6191   YX=     0.1009   ZX=     0.8576
   XY=     0.1988   YY=    23.6470   ZY=    -0.5471
   XZ=    -0.0229   YZ=    -0.2031   ZZ=    28.8547
   Eigenvalues:    23.6155    28.7919    30.7135
     17  H    Isotropic =    28.3296   Anisotropy =     5.4515
   XX=    26.7417   YX=     0.8001   ZX=    -1.9463
   XY=     1.1333   YY=    29.8395   ZY=     2.5865
   XZ=    -1.3130   YZ=     2.8869   ZZ=    28.4075
   Eigenvalues:    24.6210    28.4038    31.9639
     18  H    Isotropic =    27.7497   Anisotropy =     5.7051
   XX=    26.0956   YX=    -0.1584   ZX=    -2.5707
   XY=    -1.9689   YY=    29.4601   ZY=    -2.6505
   XZ=    -1.5209   YZ=    -2.9770   ZZ=    27.6935
   Eigenvalues:    23.5641    28.1320    31.5532
     19  H    Isotropic =    29.7854   Anisotropy =    18.9031
   XX=    38.7747   YX=    -6.6120   ZX=     4.8381
   XY=    -6.1616   YY=    23.6427   ZY=    -1.0293
   XZ=     3.7187   YZ=    -1.4372   ZZ=    26.9388
   Eigenvalues:    21.2866    25.6821    42.3875
     20  H    Isotropic =    30.1673   Anisotropy =    18.2968
   XX=    22.6574   YX=     1.1187   ZX=    -1.0114
   XY=     2.4241   YY=    32.5008   ZY=     7.8868
   XZ=    -0.6017   YZ=     8.7291   ZZ=    35.3438
   Eigenvalues:    21.7146    26.4222    42.3652
     21  H    Isotropic =    28.6695   Anisotropy =    14.9414
   XX=    25.2852   YX=     0.3327   ZX=    -6.1018
   XY=    -0.6976   YY=    33.5169   ZY=     6.8132
   XZ=    -4.3744   YZ=     6.8827   ZZ=    27.2064
   Eigenvalues:    19.3884    27.9897    38.6304
 End of Minotr Frequency-dependent properties file   721 does not exist.
 End of Minotr Frequency-dependent properties file   722 does not exist.

 **********************************************************************

            Population analysis using the SCF density.

 **********************************************************************

 Orbital symmetries:
       Occupied  (A) (A) (A) (A) (A) (A) (A) (A) (A) (A) (A) (A)
                 (A) (A) (A) (A) (A) (A) (A) (A) (A) (A) (A) (A)
                 (A) (A) (A) (A) (A) (A) (A) (A) (A) (A) (A) (A)
                 (A) (A) (A) (A) (A) (A) (A)
       Virtual   (A) (A) (A) (A) (A) (A) (A) (A) (A) (A) (A) (A)
                 (A) (A) (A) (A) (A) (A) (A) (A) (A) (A) (A) (A)
                 (A) (A) (A) (A) (A) (A) (A) (A) (A) (A) (A) (A)
                 (A) (A) (A) (A) (A) (A) (A) (A) (A) (A) (A) (A)
                 (A) (A) (A) (A) (A) (A) (A) (A) (A) (A) (A) (A)
                 (A) (A) (A) (A) (A) (A) (A) (A) (A) (A) (A) (A)
                 (A) (A) (A) (A) (A) (A) (A) (A) (A) (A) (A) (A)
                 (A) (A) (A) (A) (A) (A) (A) (A) (A) (A) (A) (A)
                 (A) (A) (A) (A) (A) (A) (A) (A) (A) (A) (A) (A)
                 (A) (A) (A) (A) (A) (A) (A) (A) (A) (A) (A) (A)
                 (A) (A) (A) (A) (A) (A) (A) (A) (A) (A) (A) (A)
                 (A) (A) (A) (A) (A) (A) (A) (A) (A) (A) (A) (A)
                 (A) (A) (A) (A) (A) (A) (A) (A) (A) (A) (A) (A)
                 (A) (A) (A) (A) (A) (A) (A) (A) (A) (A) (A) (A)
                 (A) (A) (A) (A) (A) (A) (A) (A) (A) (A) (A) (A)
                 (A) (A) (A) (A) (A) (A) (A) (A) (A) (A) (A) (A)
                 (A) (A) (A) (A) (A) (A) (A) (A) (A) (A) (A) (A)
                 (A) (A) (A) (A) (A) (A) (A) (A) (A) (A) (A) (A)
 The electronic state is 1-A.
 Alpha  occ. eigenvalues --  -19.27560 -19.27038 -19.26671 -19.26476 -19.26050
 Alpha  occ. eigenvalues --  -10.35566 -10.31833 -10.31784 -10.31588 -10.31129
 Alpha  occ. eigenvalues --  -10.30400  -1.14261  -1.08067  -1.06821  -1.06368
 Alpha  occ. eigenvalues --   -1.03705  -0.82336  -0.80179  -0.70536  -0.68717
 Alpha  occ. eigenvalues --   -0.65091  -0.60541  -0.57799  -0.55836  -0.54292
 Alpha  occ. eigenvalues --   -0.51589  -0.49527  -0.49096  -0.47640  -0.46183
 Alpha  occ. eigenvalues --   -0.45072  -0.43177  -0.41329  -0.40958  -0.39580
 Alpha  occ. eigenvalues --   -0.38477  -0.36546  -0.35412  -0.33379  -0.31902
 Alpha  occ. eigenvalues --   -0.30211  -0.29750  -0.26966
 Alpha virt. eigenvalues --    0.00715   0.01245   0.02256   0.02737   0.03714
 Alpha virt. eigenvalues --    0.04240   0.05249   0.05538   0.05973   0.08149
 Alpha virt. eigenvalues --    0.08488   0.09432   0.10017   0.10184   0.11334
 Alpha virt. eigenvalues --    0.12563   0.12793   0.13347   0.13839   0.14120
 Alpha virt. eigenvalues --    0.15045   0.16182   0.16328   0.17159   0.17310
 Alpha virt. eigenvalues --    0.17731   0.19322   0.19477   0.20290   0.21332
 Alpha virt. eigenvalues --    0.21698   0.22610   0.23249   0.23460   0.24278
 Alpha virt. eigenvalues --    0.24298   0.25200   0.26027   0.26536   0.27406
 Alpha virt. eigenvalues --    0.28603   0.28819   0.29440   0.30230   0.30570
 Alpha virt. eigenvalues --    0.31755   0.31998   0.32207   0.32898   0.33702
 Alpha virt. eigenvalues --    0.34831   0.35737   0.36282   0.36549   0.36881
 Alpha virt. eigenvalues --    0.37449   0.38087   0.39070   0.40553   0.41642
 Alpha virt. eigenvalues --    0.42325   0.43239   0.44710   0.45840   0.48838
 Alpha virt. eigenvalues --    0.51807   0.64461   0.66484   0.67746   0.68922
 Alpha virt. eigenvalues --    0.71233   0.71729   0.72616   0.75584   0.77181
 Alpha virt. eigenvalues --    0.80449   0.81317   0.82599   0.84940   0.86849
 Alpha virt. eigenvalues --    0.88627   0.92907   0.96132   0.99356   1.00359
 Alpha virt. eigenvalues --    1.01769   1.04772   1.05585   1.06053   1.06744
 Alpha virt. eigenvalues --    1.08329   1.09975   1.10664   1.12415   1.12992
 Alpha virt. eigenvalues --    1.17201   1.21375   1.23314   1.25929   1.27665
 Alpha virt. eigenvalues --    1.28440   1.30205   1.30728   1.31469   1.34801
 Alpha virt. eigenvalues --    1.36347   1.37122   1.38196   1.40871   1.41722
 Alpha virt. eigenvalues --    1.44594   1.45377   1.48111   1.48439   1.50301
 Alpha virt. eigenvalues --    1.53076   1.55763   1.57637   1.58788   1.60926
 Alpha virt. eigenvalues --    1.62491   1.64578   1.67477   1.69705   1.71497
 Alpha virt. eigenvalues --    1.72143   1.73729   1.75758   1.77085   1.78480
 Alpha virt. eigenvalues --    1.80423   1.84536   1.84855   1.87294   1.89422
 Alpha virt. eigenvalues --    1.90837   1.93964   1.95531   1.98805   1.99314
 Alpha virt. eigenvalues --    2.01229   2.03329   2.05742   2.06862   2.08910
 Alpha virt. eigenvalues --    2.11565   2.12806   2.13918   2.16565   2.17526
 Alpha virt. eigenvalues --    2.18489   2.20744   2.22544   2.28965   2.31389
 Alpha virt. eigenvalues --    2.32487   2.37190   2.37794   2.40038   2.41321
 Alpha virt. eigenvalues --    2.46096   2.49551   2.49637   2.50696   2.52122
 Alpha virt. eigenvalues --    2.54329   2.57445   2.60029   2.60566   2.64524
 Alpha virt. eigenvalues --    2.66156   2.68042   2.68920   2.70489   2.71786
 Alpha virt. eigenvalues --    2.73506   2.74149   2.77202   2.78567   2.80269
 Alpha virt. eigenvalues --    2.83044   2.85631   2.87246   2.88796   2.91395
 Alpha virt. eigenvalues --    2.92133   2.96318   2.97446   2.99529   3.04327
 Alpha virt. eigenvalues --    3.05764   3.07929   3.13202   3.18781   3.22552
 Alpha virt. eigenvalues --    3.36994   3.40906   3.45288   3.48020   3.48309
 Alpha virt. eigenvalues --    3.49524   3.54377   3.56398   3.59118   3.62592
 Alpha virt. eigenvalues --    4.29451   4.37799   4.46249   4.48428   4.52068
 Alpha virt. eigenvalues --    4.55604   4.65234   4.83813   4.90320   4.97847
 Alpha virt. eigenvalues --    5.05409
          Condensed to atoms (all electrons):
              1          2          3          4          5          6
     1  C    5.742207  -0.397870  -0.580109  -0.435397   0.463670   0.237718
     2  C   -0.397870   6.838037  -0.221404   0.509615  -0.252793  -0.770763
     3  C   -0.580109  -0.221404   6.983752   0.304066  -1.244016   0.242043
     4  C   -0.435397   0.509615   0.304066   6.771085  -0.626835  -0.585633
     5  C    0.463670  -0.252793  -1.244016  -0.626835   7.102878  -0.144841
     6  C    0.237718  -0.770763   0.242043  -0.585633  -0.144841   6.734216
     7  O    0.013199   0.095122   0.244062  -0.132168  -0.070138  -0.029194
     8  O    0.179003  -0.118787   0.337683   0.038906  -0.190639  -0.020547
     9  O    0.047118  -0.091133  -0.079058  -0.072416   0.129818   0.087345
    10  O    0.037787  -0.066862  -0.047037   0.096156   0.070927  -0.039343
    11  O   -0.001023  -0.005845  -0.137761  -0.090437   0.316583   0.010367
    12  H    0.484853  -0.174808   0.004927  -0.037744   0.017261   0.074062
    13  H    0.366208   0.011981  -0.008945   0.003860   0.002158   0.002559
    14  H    0.023595   0.303463  -0.000378   0.006865   0.000034   0.005422
    15  H    0.006624   0.046884   0.330029   0.024061  -0.004471  -0.034407
    16  H    0.001160  -0.028770   0.016361   0.270595   0.021675   0.046500
    17  H    0.013525  -0.029074   0.006612  -0.034351   0.341838   0.028213
    18  H    0.017864   0.031719  -0.047742   0.002606   0.062958   0.227873
    19  H   -0.006223  -0.004487   0.005200  -0.035310  -0.013441   0.072356
    20  H   -0.003574  -0.000341   0.011389   0.072762  -0.067403   0.002748
    21  H    0.004661  -0.021525  -0.024665  -0.052628   0.039131   0.032929
              7          8          9         10         11         12
     1  C    0.013199   0.179003   0.047118   0.037787  -0.001023   0.484853
     2  C    0.095122  -0.118787  -0.091133  -0.066862  -0.005845  -0.174808
     3  C    0.244062   0.337683  -0.079058  -0.047037  -0.137761   0.004927
     4  C   -0.132168   0.038906  -0.072416   0.096156  -0.090437  -0.037744
     5  C   -0.070138  -0.190639   0.129818   0.070927   0.316583   0.017261
     6  C   -0.029194  -0.020547   0.087345  -0.039343   0.010367   0.074062
     7  O    8.309469  -0.039131   0.003067   0.008881   0.011154   0.010591
     8  O   -0.039131   8.298682  -0.000969   0.001809   0.007532  -0.043799
     9  O    0.003067  -0.000969   8.352862   0.009793  -0.005179  -0.000036
    10  O    0.008881   0.001809   0.009793   8.281628   0.006315  -0.006918
    11  O    0.011154   0.007532  -0.005179   0.006315   8.182706  -0.000101
    12  H    0.010591  -0.043799  -0.000036  -0.006918  -0.000101   0.517735
    13  H   -0.002599  -0.051505  -0.000262   0.001285   0.000128  -0.037775
    14  H   -0.034867   0.007144   0.004194  -0.000252   0.000200   0.002154
    15  H   -0.044471  -0.044922   0.000709  -0.000114   0.003948  -0.000236
    16  H   -0.001732   0.000564  -0.014810  -0.037262  -0.000509  -0.000067
    17  H    0.011348  -0.000209  -0.000613  -0.010592  -0.048451   0.000002
    18  H    0.008139  -0.000508  -0.023929   0.002371  -0.000686  -0.000016
    19  H   -0.000367   0.000213   0.229577   0.000149  -0.000885  -0.000011
    20  H    0.000140  -0.004311  -0.000456   0.235529   0.000127   0.000249
    21  H    0.018437  -0.001084   0.009519   0.000095   0.254595  -0.000002
             13         14         15         16         17         18
     1  C    0.366208   0.023595   0.006624   0.001160   0.013525   0.017864
     2  C    0.011981   0.303463   0.046884  -0.028770  -0.029074   0.031719
     3  C   -0.008945  -0.000378   0.330029   0.016361   0.006612  -0.047742
     4  C    0.003860   0.006865   0.024061   0.270595  -0.034351   0.002606
     5  C    0.002158   0.000034  -0.004471   0.021675   0.341838   0.062958
     6  C    0.002559   0.005422  -0.034407   0.046500   0.028213   0.227873
     7  O   -0.002599  -0.034867  -0.044471  -0.001732   0.011348   0.008139
     8  O   -0.051505   0.007144  -0.044922   0.000564  -0.000209  -0.000508
     9  O   -0.000262   0.004194   0.000709  -0.014810  -0.000613  -0.023929
    10  O    0.001285  -0.000252  -0.000114  -0.037262  -0.010592   0.002371
    11  O    0.000128   0.000200   0.003948  -0.000509  -0.048451  -0.000686
    12  H   -0.037775   0.002154  -0.000236  -0.000067   0.000002  -0.000016
    13  H    0.542191  -0.003567   0.000315   0.000004  -0.000003   0.000054
    14  H   -0.003567   0.498027   0.000027  -0.000122   0.000021  -0.001798
    15  H    0.000315   0.000027   0.536524  -0.000150  -0.003016   0.000028
    16  H    0.000004  -0.000122  -0.000150   0.558971  -0.003813  -0.004187
    17  H   -0.000003   0.000021  -0.003016  -0.003813   0.538253  -0.000131
    18  H    0.000054  -0.001798   0.000028  -0.004187  -0.000131   0.546344
    19  H    0.000005   0.000019   0.000001   0.004479  -0.000010  -0.007826
    20  H   -0.000015   0.000011  -0.000017  -0.005170   0.004846  -0.000062
    21  H    0.000000   0.000041  -0.000465  -0.001306   0.005945  -0.000002
             19         20         21
     1  C   -0.006223  -0.003574   0.004661
     2  C   -0.004487  -0.000341  -0.021525
     3  C    0.005200   0.011389  -0.024665
     4  C   -0.035310   0.072762  -0.052628
     5  C   -0.013441  -0.067403   0.039131
     6  C    0.072356   0.002748   0.032929
     7  O   -0.000367   0.000140   0.018437
     8  O    0.000213  -0.004311  -0.001084
     9  O    0.229577  -0.000456   0.009519
    10  O    0.000149   0.235529   0.000095
    11  O   -0.000885   0.000127   0.254595
    12  H   -0.000011   0.000249  -0.000002
    13  H    0.000005  -0.000015   0.000000
    14  H    0.000019   0.000011   0.000041
    15  H    0.000001  -0.000017  -0.000465
    16  H    0.004479  -0.005170  -0.001306
    17  H   -0.000010   0.004846   0.005945
    18  H   -0.007826  -0.000062  -0.000002
    19  H    0.360461  -0.000024  -0.001415
    20  H   -0.000024   0.365135   0.000022
    21  H   -0.001415   0.000022   0.344009
 Mulliken atomic charges:
              1
     1  C   -0.214997
     2  C    0.347640
     3  C   -0.095009
     4  C    0.002342
     5  C    0.045648
     6  C   -0.179626
     7  O   -0.378942
     8  O   -0.355123
     9  O   -0.585140
    10  O   -0.544346
    11  O   -0.502779
    12  H    0.189680
    13  H    0.173924
    14  H    0.189766
    15  H    0.183120
    16  H    0.177589
    17  H    0.179660
    18  H    0.186931
    19  H    0.397538
    20  H    0.388416
    21  H    0.393708
 Sum of Mulliken atomic charges =   0.00000
 Mulliken charges with hydrogens summed into heavy atoms:
              1
     1  C    0.148607
     2  C    0.537406
     3  C    0.088110
     4  C    0.179931
     5  C    0.225308
     6  C    0.007306
     7  O   -0.378942
     8  O   -0.355123
     9  O   -0.187602
    10  O   -0.155930
    11  O   -0.109071
 Sum of Mulliken charges with hydrogens summed into heavy atoms =   0.00000
 Electronic spatial extent (au):  <R**2>=           1335.2637
 Charge=              0.0000 electrons
 Dipole moment (field-independent basis, Debye):
    X=              1.0080    Y=             -2.4601    Z=              2.8278  Tot=              3.8813
 Quadrupole moment (field-independent basis, Debye-Ang):
   XX=            -63.5487   YY=            -61.8015   ZZ=            -67.1199
   XY=             -1.8702   XZ=              5.1285   YZ=              3.4524
 Traceless Quadrupole moment (field-independent basis, Debye-Ang):
   XX=              0.6080   YY=              2.3552   ZZ=             -2.9632
   XY=             -1.8702   XZ=              5.1285   YZ=              3.4524
 Octapole moment (field-independent basis, Debye-Ang**2):
  XXX=             20.2216  YYY=             -9.4579  ZZZ=             17.2678  XYY=             -7.8237
  XXY=            -28.2255  XXZ=              0.9119  XZZ=              4.2538  YZZ=             15.4901
  YYZ=              6.5063  XYZ=              0.6699
 Hexadecapole moment (field-independent basis, Debye-Ang**3):
 XXXX=           -616.2339 YYYY=           -509.0326 ZZZZ=           -444.5632 XXXY=            -29.7462
 XXXZ=              3.1475 YYYX=            -34.1815 YYYZ=              5.7501 ZZZX=             -2.0217
 ZZZY=             37.4515 XXYY=           -199.1327 XXZZ=           -185.7266 YYZZ=           -157.7306
 XXYZ=             -4.3276 YYXZ=             19.5206 ZZXY=              9.7500
 N-N= 7.373097094026D+02 E-N=-2.904782238769D+03  KE= 6.052063598449D+02
 1\1\GINC-COMPUTE-8-8\SP\RmPW1PW91\6-31+G(d,p)\C6H10O5\MMARCARINO.IQUIR
 \12-Apr-2019\0\\# mpw1pw91/6-31+g** nmr scrf=(pcm,solvent=water)\\comm
 ent\\0,1\C,0,1.931893,0.716047,0.104087\C,0,0.682645,1.07995,-0.715398
 \C,0,0.745874,-1.131345,-0.575642\C,0,-0.85312,0.041315,1.034012\C,0,-
 0.530819,-1.274277,0.277632\C,0,-0.58828,1.265336,0.125531\O,0,0.53087
 6,-0.101401,-1.527168\O,0,1.864325,-0.721918,0.19914\O,0,-1.653956,1.4
 16181,-0.817983\O,0,-0.0869,0.224487,2.219252\O,0,-1.61576,-1.631423,-
 0.573279\H,0,1.937303,1.148912,1.10554\H,0,2.846188,0.995566,-0.430114
 \H,0,0.824795,1.930702,-1.383932\H,0,0.977212,-2.057403,-1.108805\H,0,
 -1.927078,0.015851,1.274654\H,0,-0.408978,-2.094552,0.994164\H,0,-0.48
 5855,2.159032,0.755871\H,0,-2.454394,1.659467,-0.324545\H,0,-0.194239,
 -0.566898,2.771063\H,0,-1.752791,-0.860239,-1.154928\\Version=EM64L-G0
 9RevC.01\State=1-A\HF=-610.6467249\RMSD=6.510e-09\Dipole=-0.3965608,0.
 9678678,1.1125535\Quadrupole=0.4520279,1.751066,-2.2030939,-1.3904522,
 -3.8129211,-2.5667793\PG=C01 [X(C6H10O5)]\\@


 I DON'T EXACTLY UNDERSTAND WHAT YOU ARE SAYING,
 BUT YOU ARE ABSOLUTELY RIGHT.
     M.S.GORDON, IN A NDSU FACULTY MEETING
 Job cpu time:  0 days  0 hours 17 minutes 20.8 seconds.
 File lengths (MBytes):  RWF=     81 Int=      0 D2E=      0 Chk=      5 Scr=      1
 Normal termination of Gaussian 09 at Fri Apr 12 10:07:50 2019.
