 Entering Gaussian System, Link 0=g09
 Input=/home/mmarcarino.iquir/NMR/01_RSR_Levo23_OPTB_nmr.gjc
 Output=/home/mmarcarino.iquir/NMR/01_RSR_Levo23_OPTB_nmr.log
 Initial command:
 /share/apps/Gaussian09/EM64T.SSE4.2-enabled/g09/l1.exe /tmp/Gau-22561.inp -scrdir=/tmp/
 Entering Link 1 = /share/apps/Gaussian09/EM64T.SSE4.2-enabled/g09/l1.exe PID=     22562.
  
 Copyright (c) 1988,1990,1992,1993,1995,1998,2003,2009,2011,
            Gaussian, Inc.  All Rights Reserved.
  
 This is part of the Gaussian(R) 09 program.  It is based on
 the Gaussian(R) 03 system (copyright 2003, Gaussian, Inc.),
 the Gaussian(R) 98 system (copyright 1998, Gaussian, Inc.),
 the Gaussian(R) 94 system (copyright 1995, Gaussian, Inc.),
 the Gaussian 92(TM) system (copyright 1992, Gaussian, Inc.),
 the Gaussian 90(TM) system (copyright 1990, Gaussian, Inc.),
 the Gaussian 88(TM) system (copyright 1988, Gaussian, Inc.),
 the Gaussian 86(TM) system (copyright 1986, Carnegie Mellon
 University), and the Gaussian 82(TM) system (copyright 1983,
 Carnegie Mellon University). Gaussian is a federally registered
 trademark of Gaussian, Inc.
  
 This software contains proprietary and confidential information,
 including trade secrets, belonging to Gaussian, Inc.
  
 This software is provided under written license and may be
 used, copied, transmitted, or stored only in accord with that
 written license.
  
 The following legend is applicable only to US Government
 contracts under FAR:
  
                    RESTRICTED RIGHTS LEGEND
  
 Use, reproduction and disclosure by the US Government is
 subject to restrictions as set forth in subparagraphs (a)
 and (c) of the Commercial Computer Software - Restricted
 Rights clause in FAR 52.227-19.
  
 Gaussian, Inc.
 340 Quinnipiac St., Bldg. 40, Wallingford CT 06492
  
  
 ---------------------------------------------------------------
 Warning -- This program may not be used in any manner that
 competes with the business of Gaussian, Inc. or will provide
 assistance to any competitor of Gaussian, Inc.  The licensee
 of this program is prohibited from giving any competitor of
 Gaussian, Inc. access to this program.  By using this program,
 the user acknowledges that Gaussian, Inc. is engaged in the
 business of creating and licensing software in the field of
 computational chemistry and represents and warrants to the
 licensee that it is not a competitor of Gaussian, Inc. and that
 it will not use this program in any manner prohibited above.
 ---------------------------------------------------------------
  

 Cite this work as:
 Gaussian 09, Revision C.01,
 M. J. Frisch, G. W. Trucks, H. B. Schlegel, G. E. Scuseria, 
 M. A. Robb, J. R. Cheeseman, G. Scalmani, V. Barone, B. Mennucci, 
 G. A. Petersson, H. Nakatsuji, M. Caricato, X. Li, H. P. Hratchian, 
 A. F. Izmaylov, J. Bloino, G. Zheng, J. L. Sonnenberg, M. Hada, 
 M. Ehara, K. Toyota, R. Fukuda, J. Hasegawa, M. Ishida, T. Nakajima, 
 Y. Honda, O. Kitao, H. Nakai, T. Vreven, J. A. Montgomery, Jr., 
 J. E. Peralta, F. Ogliaro, M. Bearpark, J. J. Heyd, E. Brothers, 
 K. N. Kudin, V. N. Staroverov, T. Keith, R. Kobayashi, J. Normand, 
 K. Raghavachari, A. Rendell, J. C. Burant, S. S. Iyengar, J. Tomasi, 
 M. Cossi, N. Rega, J. M. Millam, M. Klene, J. E. Knox, J. B. Cross, 
 V. Bakken, C. Adamo, J. Jaramillo, R. Gomperts, R. E. Stratmann, 
 O. Yazyev, A. J. Austin, R. Cammi, C. Pomelli, J. W. Ochterski, 
 R. L. Martin, K. Morokuma, V. G. Zakrzewski, G. A. Voth, 
 P. Salvador, J. J. Dannenberg, S. Dapprich, A. D. Daniels, 
 O. Farkas, J. B. Foresman, J. V. Ortiz, J. Cioslowski, 
 and D. J. Fox, Gaussian, Inc., Wallingford CT, 2010.
 
 ******************************************
 Gaussian 09:  EM64L-G09RevC.01 23-Sep-2011
                12-Apr-2019 
 ******************************************
 %nprocshared=4
 Will use up to    4 processors via shared memory.
 ------------------------------------------------
 # mpw1pw91/6-31+g** nmr scrf=(pcm,solvent=water)
 ------------------------------------------------
 1/38=1/1;
 2/12=2,17=6,18=5,40=1/2;
 3/5=1,6=6,7=111,11=2,16=1,25=1,30=1,70=2201,72=1,74=-7/1,2,8,3;
 4//1;
 5/5=2,38=5,53=1/2;
 8/6=1,10=90,11=11/1;
 10/13=100,45=16/2;
 6/7=2,8=2,9=2,10=2,28=1/1;
 99/9=1/99;
 -------
 comment
 -------
 Charge =  0 Multiplicity = 1
 Symbolic Z-Matrix:
 6                     1.98012   0.62917   0.10295 
 6                     0.66833   1.25832  -0.37001 
 6                     0.58923  -0.87501  -0.98778 
 6                    -0.72422  -0.32895   1.0841 
 6                    -0.63799  -1.27077  -0.14133 
 6                    -0.4893    1.1401    0.64218 
 8                     0.382     0.42176  -1.50913 
 8                     1.75884  -0.78154  -0.14489 
 8                    -1.72001   1.54476   0.03064 
 8                     0.16634  -0.7258    2.12199 
 8                    -1.80825  -1.20795  -0.9426 
 1                     2.19544   0.77735   1.16314 
 1                     2.82512   0.97845  -0.49832 
 1                     0.78318   2.28454  -0.72788 
 1                     0.77606  -1.56183  -1.81644 
 1                    -1.73654  -0.38648   1.49613 
 1                    -0.54049  -2.30363   0.20811 
 1                    -0.27031   1.74945   1.52974 
 1                    -1.60343   2.43227  -0.34723 
 1                     0.97661  -1.03874   1.68013 
 1                    -1.95409  -0.2583   -1.11615 
 
                          Input orientation:                          
 ---------------------------------------------------------------------
 Center     Atomic      Atomic             Coordinates (Angstroms)
 Number     Number       Type             X           Y           Z
 ---------------------------------------------------------------------
      1          6           0        1.980121    0.629167    0.102945
      2          6           0        0.668334    1.258315   -0.370007
      3          6           0        0.589229   -0.875014   -0.987778
      4          6           0       -0.724215   -0.328953    1.084101
      5          6           0       -0.637993   -1.270770   -0.141327
      6          6           0       -0.489304    1.140097    0.642180
      7          8           0        0.382003    0.421761   -1.509126
      8          8           0        1.758840   -0.781540   -0.144890
      9          8           0       -1.720011    1.544757    0.030640
     10          8           0        0.166343   -0.725798    2.121989
     11          8           0       -1.808246   -1.207945   -0.942604
     12          1           0        2.195439    0.777352    1.163138
     13          1           0        2.825116    0.978445   -0.498317
     14          1           0        0.783181    2.284539   -0.727878
     15          1           0        0.776058   -1.561827   -1.816440
     16          1           0       -1.736543   -0.386475    1.496129
     17          1           0       -0.540492   -2.303629    0.208111
     18          1           0       -0.270313    1.749448    1.529738
     19          1           0       -1.603428    2.432265   -0.347228
     20          1           0        0.976613   -1.038742    1.680131
     21          1           0       -1.954093   -0.258302   -1.116153
 ---------------------------------------------------------------------
                    Distance matrix (angstroms):
                    1          2          3          4          5
     1  C    0.000000
     2  C    1.529803   0.000000
     3  C    2.320952   2.222384   0.000000
     4  C    3.032176   2.563795   2.513165   0.000000
     5  C    3.244064   2.855706   1.542458   1.547943   0.000000
     6  C    2.578737   1.542279   2.807253   1.551962   2.539345
     7  O    2.279423   1.442013   1.412930   2.917553   2.403316
     8  O    1.449304   2.323981   1.444710   2.807279   2.446256
     9  O    3.812415   2.438598   3.496435   2.369004   3.021180
    10  O    3.033523   3.224708   3.141934   1.424005   2.463037
    11  O    4.338188   3.541716   2.420903   2.460749   1.419677
    12  H    1.091939   2.216734   3.152247   3.123225   3.731591
    13  H    1.094316   2.178646   2.945178   4.100133   4.144820
    14  H    2.205264   1.092885   3.176152   3.519354   3.873500
    15  H    3.151866   3.171273   1.092382   3.490549   2.211393
    16  H    4.097082   3.459947   3.437685   1.094479   2.161030
    17  H    3.868571   3.805644   2.178844   2.168054   1.094720
    18  H    2.890540   2.175155   3.736910   2.173562   3.471219
    19  H    4.036786   2.557260   4.019471   3.232034   3.832353
    20  H    2.505287   3.094281   2.700854   1.936974   2.445097
    21  H    4.213293   3.119933   2.620172   2.521648   1.925486
                    6          7          8          9         10
     6  C    0.000000
     7  O    2.429671   0.000000
     8  O    3.060444   2.281393   0.000000
     9  O    1.432610   2.837334   4.188660   0.000000
    10  O    2.470075   3.814236   2.770901   3.617664   0.000000
    11  O    3.124812   2.788204   3.679983   2.921020   3.677390
    12  H    2.758773   3.248998   2.081274   4.147555   2.701127
    13  H    3.508881   2.701931   2.087918   4.610714   4.103599
    14  H    2.192265   2.059426   3.269958   2.718197   4.190986
    15  H    3.866051   2.045567   2.090165   4.392372   4.072090
    16  H    2.148315   3.764710   3.881588   2.424374   2.031703
    17  H    3.471352   3.350769   2.779981   4.028999   2.579166
    18  H    1.098647   3.379787   3.650718   2.095428   2.582300
    19  H    1.972283   3.055171   4.655570   0.971620   4.382064
    20  H    2.823755   3.557807   2.002182   4.082532   0.974531
    21  H    2.681951   2.464601   3.873371   2.149640   3.898765
                   11         12         13         14         15
    11  O    0.000000
    12  H    4.940146   0.000000
    13  H    5.142542   1.788118   0.000000
    14  H    4.354199   2.800362   2.434765   0.000000
    15  H    2.750900   4.045279   3.519811   3.997443   0.000000
    16  H    2.574368   4.114105   5.162321   4.292963   4.320617
    17  H    2.032700   4.229638   4.753774   4.866156   2.526337
    18  H    4.150167   2.675687   3.780097   2.548137   4.822483
    19  H    3.694259   4.410367   4.663520   2.421285   4.875788
    20  H    3.829205   2.247447   3.497377   4.108542   3.541165
    21  H    0.976326   4.846273   4.975149   3.756257   3.105367
                   16         17         18         19         20
    16  H    0.000000
    17  H    2.600963   0.000000
    18  H    2.590970   4.271666   0.000000
    19  H    3.370605   4.885379   2.401340   0.000000
    20  H    2.796520   2.463410   3.058013   4.776472   0.000000
    21  H    2.624457   2.816967   3.723831   2.820171   4.125206
                   21
    21  H    0.000000
 Stoichiometry    C6H10O5
 Framework group  C1[X(C6H10O5)]
 Deg. of freedom    57
 Full point group                 C1      NOp   1
 Largest Abelian subgroup         C1      NOp   1
 Largest concise Abelian subgroup C1      NOp   1
                         Standard orientation:                         
 ---------------------------------------------------------------------
 Center     Atomic      Atomic             Coordinates (Angstroms)
 Number     Number       Type             X           Y           Z
 ---------------------------------------------------------------------
      1          6           0        1.980121    0.629166    0.102945
      2          6           0        0.668334    1.258315   -0.370007
      3          6           0        0.589229   -0.875014   -0.987778
      4          6           0       -0.724215   -0.328953    1.084101
      5          6           0       -0.637994   -1.270770   -0.141327
      6          6           0       -0.489304    1.140097    0.642180
      7          8           0        0.382003    0.421761   -1.509126
      8          8           0        1.758840   -0.781541   -0.144890
      9          8           0       -1.720010    1.544758    0.030640
     10          8           0        0.166343   -0.725798    2.121989
     11          8           0       -1.808246   -1.207944   -0.942604
     12          1           0        2.195439    0.777351    1.163138
     13          1           0        2.825116    0.978444   -0.498317
     14          1           0        0.783182    2.284539   -0.727878
     15          1           0        0.776057   -1.561827   -1.816440
     16          1           0       -1.736543   -0.386474    1.496129
     17          1           0       -0.540493   -2.303629    0.208111
     18          1           0       -0.270312    1.749448    1.529738
     19          1           0       -1.603427    2.432266   -0.347228
     20          1           0        0.976613   -1.038742    1.680131
     21          1           0       -1.954093   -0.258301   -1.116153
 ---------------------------------------------------------------------
 Rotational constants (GHZ):      1.4574010      1.2105539      1.1911745
 Standard basis: 6-31+G(d,p) (6D, 7F)
 There are   259 symmetry adapted basis functions of A   symmetry.
 Integral buffers will be    131072 words long.
 Raffenetti 2 integral format.
 Two-electron integral symmetry is turned on.
   259 basis functions,   422 primitive gaussians,   259 cartesian basis functions
    43 alpha electrons       43 beta electrons
       nuclear repulsion energy       740.6818647493 Hartrees.
 NAtoms=   21 NActive=   21 NUniq=   21 SFac= 1.00D+00 NAtFMM=   60 NAOKFM=F Big=F
 ------------------------------------------------------------------------------
 Polarizable Continuum Model (PCM)
 =================================
 Model                : PCM.
 Atomic radii         : UFF (Universal Force Field).
 Polarization charges : Total charges.
 Charge compensation  : None.
 Solution method      : Matrix inversion.
 Cavity type          : Scaled VdW (van der Waals Surface) (Alpha=1.100).
 Cavity algorithm     : GePol (No added spheres)
                        Default sphere list used, NSphG=   21.
                        Lebedev-Laikov grids with approx.  5.0 points / Ang**2.
                        Smoothing algorithm: Karplus/York (Gamma=1.0000).
                        Polarization charges: spherical gaussians, with
                                              point-specific exponents (IZeta= 3).
                        Self-potential: point-specific (ISelfS= 7).
                        Self-field    : sphere-specific E.n sum rule (ISelfD= 2).
 Solvent              : Water, Eps=  78.355300 Eps(inf)=   1.777849
 ------------------------------------------------------------------------------
 One-electron integrals computed using PRISM.
 NBasis=   259 RedAO= T  NBF=   259
 NBsUse=   259 1.00D-06 NBFU=   259
 Harris functional with IExCor=  908 diagonalized for initial guess.
 ExpMin= 4.38D-02 ExpMax= 5.48D+03 ExpMxC= 8.25D+02 IAcc=2 IRadAn=         4 AccDes= 0.00D+00
 HarFok:  IExCor=  908 AccDes= 0.00D+00 IRadAn=         4 IDoV= 1
 ScaDFX=  1.000000  1.000000  1.000000  1.000000
 FoFCou: FMM=F IPFlag=           0 FMFlag=      100000 FMFlg1=           0
         NFxFlg=           0 DoJE=T BraDBF=F KetDBF=T FulRan=T
         Omega=  0.000000  0.000000  1.000000  0.000000  0.000000 ICntrl=     500 IOpCl=  0
         NMat0=    1 NMatS0=    1 NMatT0=    0 NMatD0=    1 NMtDS0=    0 NMtDT0=    0
         I1Cent=           4 NGrid=           0.
 Petite list used in FoFCou.
 Initial guess orbital symmetries:
       Occupied  (A) (A) (A) (A) (A) (A) (A) (A) (A) (A) (A) (A)
                 (A) (A) (A) (A) (A) (A) (A) (A) (A) (A) (A) (A)
                 (A) (A) (A) (A) (A) (A) (A) (A) (A) (A) (A) (A)
                 (A) (A) (A) (A) (A) (A) (A)
       Virtual   (A) (A) (A) (A) (A) (A) (A) (A) (A) (A) (A) (A)
                 (A) (A) (A) (A) (A) (A) (A) (A) (A) (A) (A) (A)
                 (A) (A) (A) (A) (A) (A) (A) (A) (A) (A) (A) (A)
                 (A) (A) (A) (A) (A) (A) (A) (A) (A) (A) (A) (A)
                 (A) (A) (A) (A) (A) (A) (A) (A) (A) (A) (A) (A)
                 (A) (A) (A) (A) (A) (A) (A) (A) (A) (A) (A) (A)
                 (A) (A) (A) (A) (A) (A) (A) (A) (A) (A) (A) (A)
                 (A) (A) (A) (A) (A) (A) (A) (A) (A) (A) (A) (A)
                 (A) (A) (A) (A) (A) (A) (A) (A) (A) (A) (A) (A)
                 (A) (A) (A) (A) (A) (A) (A) (A) (A) (A) (A) (A)
                 (A) (A) (A) (A) (A) (A) (A) (A) (A) (A) (A) (A)
                 (A) (A) (A) (A) (A) (A) (A) (A) (A) (A) (A) (A)
                 (A) (A) (A) (A) (A) (A) (A) (A) (A) (A) (A) (A)
                 (A) (A) (A) (A) (A) (A) (A) (A) (A) (A) (A) (A)
                 (A) (A) (A) (A) (A) (A) (A) (A) (A) (A) (A) (A)
                 (A) (A) (A) (A) (A) (A) (A) (A) (A) (A) (A) (A)
                 (A) (A) (A) (A) (A) (A) (A) (A) (A) (A) (A) (A)
                 (A) (A) (A) (A) (A) (A) (A) (A) (A) (A) (A) (A)
 The electronic state of the initial guess is 1-A.
 Requested convergence on RMS density matrix=1.00D-08 within 128 cycles.
 Requested convergence on MAX density matrix=1.00D-06.
 Requested convergence on             energy=1.00D-06.
 No special actions if energy rises.
 Error on total polarization charges =  0.01146
 SCF Done:  E(RmPW1PW91) =  -610.648498523     A.U. after   12 cycles
             Convg  =    0.7038D-08             -V/T =  2.0090
 Range of M.O.s used for correlation:     1   259
 NBasis=   259 NAE=    43 NBE=    43 NFC=     0 NFV=     0
 NROrb=    259 NOA=    43 NOB=    43 NVA=   216 NVB=   216

 **** Warning!!: The largest alpha MO coefficient is  0.57232938D+02

 NEqPCM:  Using equilibrium solvation (IEInf=0, Eps=  78.3553, EpsInf=   1.7778)
          Differentiating once with respect to magnetic field using GIAOs.
          Electric field/nuclear overlap derivatives assumed to be zero.
 FoFCou: FMM=F IPFlag=           0 FMFlag=    10101102 FMFlg1=           0
         NFxFlg=    40000000 DoJE=F BraDBF=F KetDBF=T FulRan=T
         Omega=  0.000000  0.000000  1.000000  0.000000  0.000000 ICntrl=    6100 IOpCl=  0
         NMat0=    1 NMatS0=    1 NMatT0=    0 NMatD0=    1 NMtDS0=    0 NMtDT0=    0
         I1Cent=           7 NGrid=        1478.
 Symmetry not used in FoFCou.
          There are     3 degrees of freedom in the 1st order CPHF.  IDoFFX=0.
      3 vectors produced by pass  0 Test12= 3.10D-13 3.33D-08 XBig12= 1.80D+01 8.95D-01.
 AX will form     3 AO Fock derivatives at one time.
      3 vectors produced by pass  1 Test12= 3.10D-13 3.33D-08 XBig12= 4.03D-02 2.73D-02.
      3 vectors produced by pass  2 Test12= 3.10D-13 3.33D-08 XBig12= 8.42D-05 1.85D-03.
      3 vectors produced by pass  3 Test12= 3.10D-13 3.33D-08 XBig12= 4.41D-07 1.41D-04.
      3 vectors produced by pass  4 Test12= 3.10D-13 3.33D-08 XBig12= 1.24D-09 5.44D-06.
      3 vectors produced by pass  5 Test12= 3.10D-13 3.33D-08 XBig12= 4.43D-12 3.51D-07.
 Inverted reduced A of dimension    18 with in-core refinement.
 Calculating GIAO nuclear magnetic shielding tensors.
 SCF GIAO Magnetic shielding tensor (ppm):
      1  C    Isotropic =   129.7955   Anisotropy =    61.7249
   XX=   116.4975   YX=     7.0739   ZX=     9.9020
   XY=     1.0820   YY=   169.0528   ZY=     6.4214
   XZ=     1.4457   YZ=    13.2790   ZZ=   103.8362
   Eigenvalues:   100.7477   117.6934   170.9455
      2  C    Isotropic =   116.5912   Anisotropy =    44.5013
   XX=   111.4716   YX=    -3.6826   ZX=    13.6067
   XY=     1.3962   YY=   112.9020   ZY=    19.8380
   XZ=     1.9780   YZ=    31.1455   ZZ=   125.4000
   Eigenvalues:    91.2483   112.2665   146.2587
      3  C    Isotropic =    90.6824   Anisotropy =    37.9262
   XX=   103.6166   YX=     3.0373   ZX=    26.3399
   XY=     4.2451   YY=    88.7701   ZY=    -2.6670
   XZ=    15.5184   YZ=   -19.0305   ZZ=    79.6604
   Eigenvalues:    62.6866    93.3940   115.9665
      4  C    Isotropic =   122.6489   Anisotropy =    52.4331
   XX=   139.0330   YX=    -8.7199   ZX=    28.3429
   XY=    -3.4751   YY=   107.6352   ZY=    -6.5775
   XZ=    19.9884   YZ=    -8.1553   ZZ=   121.2785
   Eigenvalues:   102.5492   107.7932   157.6044
      5  C    Isotropic =   125.2202   Anisotropy =    49.7209
   XX=   136.1373   YX=    -7.8452   ZX=    21.3632
   XY=   -12.5254   YY=   111.8144   ZY=    -6.2211
   XZ=    26.0640   YZ=    -2.0231   ZZ=   127.7089
   Eigenvalues:   105.2467   112.0465   158.3675
      6  C    Isotropic =   121.8371   Anisotropy =    50.0509
   XX=   133.7987   YX=   -12.3583   ZX=    19.8257
   XY=   -11.4418   YY=   108.0412   ZY=    -2.9771
   XZ=    25.6416   YZ=    -6.3639   ZZ=   123.6715
   Eigenvalues:   101.4654   108.8416   155.2044
      7  O    Isotropic =   256.8471   Anisotropy =    68.5079
   XX=   253.7490   YX=    20.3678   ZX=    44.1860
   XY=    -2.3319   YY=   282.3188   ZY=    -4.9912
   XZ=    66.3446   YZ=     4.5980   ZZ=   234.4735
   Eigenvalues:   187.6360   280.3863   302.5191
      8  O    Isotropic =   263.7161   Anisotropy =   104.6181
   XX=   268.0747   YX=   -15.9700   ZX=    68.4039
   XY=   -10.3345   YY=   300.5247   ZY=    -6.7423
   XZ=    67.9433   YZ=   -35.3047   ZZ=   222.5489
   Eigenvalues:   172.7310   284.9557   333.4615
      9  O    Isotropic =   287.9813   Anisotropy =    86.6664
   XX=   276.8016   YX=     6.1500   ZX=   -11.8091
   XY=   -22.4448   YY=   321.1172   ZY=   -46.8462
   XZ=     0.0241   YZ=   -41.1742   ZZ=   266.0252
   Eigenvalues:   239.4245   278.7606   345.7589
     10  O    Isotropic =   289.5062   Anisotropy =    37.1289
   XX=   288.8616   YX=   -22.0528   ZX=    19.8580
   XY=   -20.5528   YY=   275.8145   ZY=     5.3179
   XZ=     6.2291   YZ=    -0.9279   ZZ=   303.8425
   Eigenvalues:   258.0001   296.2596   314.2587
     11  O    Isotropic =   288.7615   Anisotropy =    23.2926
   XX=   280.1788   YX=     3.2732   ZX=     5.0108
   XY=     6.1477   YY=   295.0354   ZY=     4.5656
   XZ=    21.6530   YZ=     4.1879   ZZ=   291.0704
   Eigenvalues:   271.1275   290.8671   304.2899
     12  H    Isotropic =    27.3520   Anisotropy =     6.8745
   XX=    27.6572   YX=     2.3641   ZX=     1.6222
   XY=     2.5980   YY=    26.1923   ZY=     2.7574
   XZ=     3.0076   YZ=     1.0858   ZZ=    28.2066
   Eigenvalues:    24.3269    25.7942    31.9350
     13  H    Isotropic =    27.6815   Anisotropy =    11.4156
   XX=    31.6271   YX=     3.7905   ZX=    -2.1350
   XY=     4.9433   YY=    28.3182   ZY=    -1.5674
   XZ=    -2.8948   YZ=    -1.0480   ZZ=    23.0991
   Eigenvalues:    22.4094    25.3431    35.2919
     14  H    Isotropic =    27.1488   Anisotropy =     8.0453
   XX=    24.9425   YX=     2.3256   ZX=    -0.9931
   XY=     1.0463   YY=    32.0689   ZY=    -1.2982
   XZ=    -0.4131   YZ=     0.1348   ZZ=    24.4351
   Eigenvalues:    23.9025    25.0316    32.5124
     15  H    Isotropic =    25.9780   Anisotropy =     7.6962
   XX=    24.0033   YX=    -0.8217   ZX=    -0.4840
   XY=    -1.4158   YY=    27.4390   ZY=     3.8806
   XZ=    -0.4830   YZ=     3.9711   ZZ=    26.4916
   Eigenvalues:    22.8625    23.9627    31.1088
     16  H    Isotropic =    27.7738   Anisotropy =     4.9810
   XX=    30.3910   YX=    -0.0255   ZX=    -1.8449
   XY=    -0.1197   YY=    24.8098   ZY=    -2.1137
   XZ=    -0.7734   YZ=    -1.8307   ZZ=    28.1206
   Eigenvalues:    23.8296    28.3974    31.0945
     17  H    Isotropic =    28.0597   Anisotropy =     5.6014
   XX=    27.0037   YX=     0.1940   ZX=     2.1656
   XY=     0.8437   YY=    31.3487   ZY=    -1.5121
   XZ=     1.5533   YZ=    -1.7478   ZZ=    25.8267
   Eigenvalues:    24.0987    28.2865    31.7939
     18  H    Isotropic =    27.6430   Anisotropy =     6.0546
   XX=    26.7053   YX=    -1.2834   ZX=     2.6420
   XY=    -1.6611   YY=    26.7511   ZY=     2.9925
   XZ=     0.8517   YZ=     3.3925   ZZ=    29.4726
   Eigenvalues:    23.2367    28.0129    31.6794
     19  H    Isotropic =    29.9636   Anisotropy =    19.2043
   XX=    26.1675   YX=    -2.2762   ZX=     1.6663
   XY=    -1.7313   YY=    39.4725   ZY=    -7.0339
   XZ=     0.6477   YZ=    -7.6887   ZZ=    24.2507
   Eigenvalues:    21.2511    25.8732    42.7664
     20  H    Isotropic =    28.1586   Anisotropy =    16.5488
   XX=    34.0298   YX=    -5.5339   ZX=    -6.3657
   XY=    -6.0601   YY=    20.4318   ZY=    -0.9721
   XZ=    -5.3531   YZ=    -1.0676   ZZ=    30.0142
   Eigenvalues:    17.4946    27.7901    39.1912
     21  H    Isotropic =    28.1618   Anisotropy =    16.2602
   XX=    25.3463   YX=    -2.3079   ZX=     5.2352
   XY=    -2.5659   YY=    38.3196   ZY=    -1.1982
   XZ=     3.3358   YZ=    -1.3550   ZZ=    20.8195
   Eigenvalues:    18.2350    27.2485    39.0019
 End of Minotr Frequency-dependent properties file   721 does not exist.
 End of Minotr Frequency-dependent properties file   722 does not exist.

 **********************************************************************

            Population analysis using the SCF density.

 **********************************************************************

 Orbital symmetries:
       Occupied  (A) (A) (A) (A) (A) (A) (A) (A) (A) (A) (A) (A)
                 (A) (A) (A) (A) (A) (A) (A) (A) (A) (A) (A) (A)
                 (A) (A) (A) (A) (A) (A) (A) (A) (A) (A) (A) (A)
                 (A) (A) (A) (A) (A) (A) (A)
       Virtual   (A) (A) (A) (A) (A) (A) (A) (A) (A) (A) (A) (A)
                 (A) (A) (A) (A) (A) (A) (A) (A) (A) (A) (A) (A)
                 (A) (A) (A) (A) (A) (A) (A) (A) (A) (A) (A) (A)
                 (A) (A) (A) (A) (A) (A) (A) (A) (A) (A) (A) (A)
                 (A) (A) (A) (A) (A) (A) (A) (A) (A) (A) (A) (A)
                 (A) (A) (A) (A) (A) (A) (A) (A) (A) (A) (A) (A)
                 (A) (A) (A) (A) (A) (A) (A) (A) (A) (A) (A) (A)
                 (A) (A) (A) (A) (A) (A) (A) (A) (A) (A) (A) (A)
                 (A) (A) (A) (A) (A) (A) (A) (A) (A) (A) (A) (A)
                 (A) (A) (A) (A) (A) (A) (A) (A) (A) (A) (A) (A)
                 (A) (A) (A) (A) (A) (A) (A) (A) (A) (A) (A) (A)
                 (A) (A) (A) (A) (A) (A) (A) (A) (A) (A) (A) (A)
                 (A) (A) (A) (A) (A) (A) (A) (A) (A) (A) (A) (A)
                 (A) (A) (A) (A) (A) (A) (A) (A) (A) (A) (A) (A)
                 (A) (A) (A) (A) (A) (A) (A) (A) (A) (A) (A) (A)
                 (A) (A) (A) (A) (A) (A) (A) (A) (A) (A) (A) (A)
                 (A) (A) (A) (A) (A) (A) (A) (A) (A) (A) (A) (A)
                 (A) (A) (A) (A) (A) (A) (A) (A) (A) (A) (A) (A)
 The electronic state is 1-A.
 Alpha  occ. eigenvalues --  -19.28157 -19.28118 -19.27303 -19.25980 -19.25965
 Alpha  occ. eigenvalues --  -10.36176 -10.32334 -10.31885 -10.31494 -10.31392
 Alpha  occ. eigenvalues --  -10.31285  -1.14956  -1.08082  -1.06818  -1.06410
 Alpha  occ. eigenvalues --   -1.04282  -0.82690  -0.80529  -0.70941  -0.68721
 Alpha  occ. eigenvalues --   -0.65777  -0.61299  -0.58771  -0.55954  -0.54490
 Alpha  occ. eigenvalues --   -0.50939  -0.50058  -0.48577  -0.47679  -0.46564
 Alpha  occ. eigenvalues --   -0.45937  -0.44328  -0.42209  -0.41539  -0.39564
 Alpha  occ. eigenvalues --   -0.38016  -0.37225  -0.35978  -0.33718  -0.32794
 Alpha  occ. eigenvalues --   -0.30336  -0.29641  -0.27635
 Alpha virt. eigenvalues --    0.00691   0.01339   0.02670   0.02837   0.03661
 Alpha virt. eigenvalues --    0.04233   0.05005   0.05241   0.05961   0.08230
 Alpha virt. eigenvalues --    0.08794   0.09753   0.10032   0.10118   0.11078
 Alpha virt. eigenvalues --    0.12247   0.12415   0.13364   0.13693   0.13811
 Alpha virt. eigenvalues --    0.14446   0.15843   0.16708   0.17199   0.17657
 Alpha virt. eigenvalues --    0.18043   0.18875   0.19573   0.20023   0.20847
 Alpha virt. eigenvalues --    0.21094   0.21683   0.22672   0.22976   0.23651
 Alpha virt. eigenvalues --    0.24775   0.25385   0.25771   0.26535   0.26921
 Alpha virt. eigenvalues --    0.27736   0.28837   0.29123   0.29575   0.31138
 Alpha virt. eigenvalues --    0.31529   0.31836   0.32244   0.33571   0.33960
 Alpha virt. eigenvalues --    0.34595   0.35367   0.35734   0.36293   0.36729
 Alpha virt. eigenvalues --    0.37458   0.37481   0.38881   0.39775   0.40493
 Alpha virt. eigenvalues --    0.42866   0.44580   0.44922   0.45943   0.48476
 Alpha virt. eigenvalues --    0.52117   0.64644   0.65699   0.67946   0.68278
 Alpha virt. eigenvalues --    0.69437   0.71153   0.71887   0.76090   0.76405
 Alpha virt. eigenvalues --    0.79505   0.80837   0.82128   0.84578   0.87618
 Alpha virt. eigenvalues --    0.87924   0.92872   0.95467   0.98201   1.00318
 Alpha virt. eigenvalues --    1.02050   1.03776   1.05766   1.06989   1.07515
 Alpha virt. eigenvalues --    1.09358   1.10104   1.11166   1.12934   1.14255
 Alpha virt. eigenvalues --    1.18562   1.20588   1.23733   1.24394   1.26470
 Alpha virt. eigenvalues --    1.28510   1.29388   1.29974   1.30482   1.33486
 Alpha virt. eigenvalues --    1.33951   1.37221   1.37680   1.39791   1.43377
 Alpha virt. eigenvalues --    1.44345   1.46406   1.47257   1.49156   1.50907
 Alpha virt. eigenvalues --    1.55004   1.55705   1.57151   1.59542   1.60222
 Alpha virt. eigenvalues --    1.61797   1.65462   1.67163   1.67437   1.71185
 Alpha virt. eigenvalues --    1.72761   1.74167   1.75695   1.76659   1.78993
 Alpha virt. eigenvalues --    1.79702   1.83821   1.84496   1.86076   1.88434
 Alpha virt. eigenvalues --    1.89902   1.92602   1.96116   1.96377   1.97475
 Alpha virt. eigenvalues --    1.99941   2.03798   2.04893   2.07181   2.08021
 Alpha virt. eigenvalues --    2.09574   2.11731   2.13789   2.15525   2.18040
 Alpha virt. eigenvalues --    2.19750   2.22894   2.25447   2.26203   2.29260
 Alpha virt. eigenvalues --    2.34032   2.35707   2.37276   2.39684   2.41314
 Alpha virt. eigenvalues --    2.45132   2.48215   2.48407   2.51497   2.52756
 Alpha virt. eigenvalues --    2.53940   2.58097   2.61703   2.62313   2.63090
 Alpha virt. eigenvalues --    2.64210   2.66662   2.68245   2.69966   2.70581
 Alpha virt. eigenvalues --    2.73010   2.74602   2.77039   2.77744   2.79795
 Alpha virt. eigenvalues --    2.84608   2.85014   2.87672   2.89952   2.92219
 Alpha virt. eigenvalues --    2.93213   2.96019   2.98705   2.99181   3.02184
 Alpha virt. eigenvalues --    3.05732   3.06536   3.09258   3.18854   3.23914
 Alpha virt. eigenvalues --    3.35492   3.40650   3.46702   3.47341   3.49351
 Alpha virt. eigenvalues --    3.50165   3.53242   3.56188   3.62622   3.63302
 Alpha virt. eigenvalues --    4.30672   4.35781   4.45667   4.49820   4.52308
 Alpha virt. eigenvalues --    4.55956   4.64047   4.83042   4.88597   4.98044
 Alpha virt. eigenvalues --    5.06671
          Condensed to atoms (all electrons):
              1          2          3          4          5          6
     1  C    5.893137  -0.407625  -0.396299  -0.446981   0.343346   0.180355
     2  C   -0.407625   7.071918  -0.471438   0.722661  -0.048833  -1.260490
     3  C   -0.396299  -0.471438   6.822538   0.250988  -1.083380   0.373100
     4  C   -0.446981   0.722661   0.250988   7.183497  -0.645419  -1.048635
     5  C    0.343346  -0.048833  -1.083380  -0.645419   6.913090  -0.106712
     6  C    0.180355  -1.260490   0.373100  -1.048635  -0.106712   7.510023
     7  O    0.005615   0.125593   0.241599  -0.141857  -0.043296  -0.052527
     8  O    0.077793  -0.032742   0.234590   0.040434  -0.216904  -0.011455
     9  O    0.026970   0.035199  -0.071929  -0.087603   0.072785   0.043236
    10  O    0.031213  -0.025745  -0.037264   0.274511  -0.017438  -0.116120
    11  O   -0.004461  -0.016391  -0.150560  -0.058566   0.308007   0.023926
    12  H    0.464689  -0.135123   0.014882  -0.031742   0.011815   0.046031
    13  H    0.351946   0.016422  -0.012164   0.006505  -0.000363   0.007136
    14  H    0.029729   0.260464   0.001952  -0.014159   0.004890   0.059073
    15  H   -0.001816   0.054712   0.317374   0.039354  -0.006353  -0.037474
    16  H    0.002889  -0.006671   0.018165   0.301263  -0.024317   0.035609
    17  H    0.014261  -0.040245  -0.005461  -0.095747   0.386340   0.053795
    18  H    0.021795   0.053267  -0.044870  -0.015782   0.053506   0.227098
    19  H    0.012688  -0.059743   0.006930   0.013432  -0.009527   0.051876
    20  H   -0.001223  -0.008807   0.027932  -0.023104  -0.037242   0.015549
    21  H    0.001469  -0.039828  -0.020176  -0.086248   0.044723   0.079983
              7          8          9         10         11         12
     1  C    0.005615   0.077793   0.026970   0.031213  -0.004461   0.464689
     2  C    0.125593  -0.032742   0.035199  -0.025745  -0.016391  -0.135123
     3  C    0.241599   0.234590  -0.071929  -0.037264  -0.150560   0.014882
     4  C   -0.141857   0.040434  -0.087603   0.274511  -0.058566  -0.031742
     5  C   -0.043296  -0.216904   0.072785  -0.017438   0.308007   0.011815
     6  C   -0.052527  -0.011455   0.043236  -0.116120   0.023926   0.046031
     7  O    8.313886  -0.055554   0.011024   0.003603   0.015551   0.012192
     8  O   -0.055554   8.476999   0.001090   0.000742   0.011712  -0.056477
     9  O    0.011024   0.001090   8.339363   0.010587  -0.017362  -0.000195
    10  O    0.003603   0.000742   0.010587   8.159620   0.005745   0.001627
    11  O    0.015551   0.011712  -0.017362   0.005745   8.171759  -0.000049
    12  H    0.012192  -0.056477  -0.000195   0.001627  -0.000049   0.511454
    13  H   -0.006102  -0.035879  -0.000315  -0.000162   0.000124  -0.032595
    14  H   -0.035058   0.007865  -0.009375   0.000278   0.000108   0.001562
    15  H   -0.047589  -0.035458   0.000698  -0.000603   0.003814  -0.000210
    16  H   -0.001568   0.003025   0.001645  -0.043690   0.000988  -0.000049
    17  H    0.011374   0.001430  -0.000891   0.004057  -0.046701   0.000001
    18  H    0.010280  -0.003333  -0.024417  -0.000882  -0.001121   0.000994
    19  H   -0.003326  -0.000173   0.234086  -0.000471   0.000792   0.000008
    20  H   -0.000843   0.031422  -0.000346   0.260799   0.000965  -0.001227
    21  H    0.014608  -0.000388   0.006172   0.000975   0.257195  -0.000002
             13         14         15         16         17         18
     1  C    0.351946   0.029729  -0.001816   0.002889   0.014261   0.021795
     2  C    0.016422   0.260464   0.054712  -0.006671  -0.040245   0.053267
     3  C   -0.012164   0.001952   0.317374   0.018165  -0.005461  -0.044870
     4  C    0.006505  -0.014159   0.039354   0.301263  -0.095747  -0.015782
     5  C   -0.000363   0.004890  -0.006353  -0.024317   0.386340   0.053506
     6  C    0.007136   0.059073  -0.037474   0.035609   0.053795   0.227098
     7  O   -0.006102  -0.035058  -0.047589  -0.001568   0.011374   0.010280
     8  O   -0.035879   0.007865  -0.035458   0.003025   0.001430  -0.003333
     9  O   -0.000315  -0.009375   0.000698   0.001645  -0.000891  -0.024417
    10  O   -0.000162   0.000278  -0.000603  -0.043690   0.004057  -0.000882
    11  O    0.000124   0.000108   0.003814   0.000988  -0.046701  -0.001121
    12  H   -0.032595   0.001562  -0.000210  -0.000049   0.000001   0.000994
    13  H    0.520916  -0.002830   0.000556   0.000004   0.000000  -0.000065
    14  H   -0.002830   0.499728   0.000036  -0.000128   0.000021  -0.002267
    15  H    0.000556   0.000036   0.528646  -0.000130  -0.002851   0.000025
    16  H    0.000004  -0.000128  -0.000130   0.524857  -0.003189  -0.004030
    17  H    0.000000   0.000021  -0.002851  -0.003189   0.525636  -0.000120
    18  H   -0.000065  -0.002267   0.000025  -0.004030  -0.000120   0.549971
    19  H   -0.000013   0.004223  -0.000004  -0.000013   0.000014  -0.004613
    20  H    0.000274  -0.000062  -0.000123   0.004933  -0.001163   0.000138
    21  H    0.000001   0.000071  -0.000401  -0.001057   0.005849  -0.000030
             19         20         21
     1  C    0.012688  -0.001223   0.001469
     2  C   -0.059743  -0.008807  -0.039828
     3  C    0.006930   0.027932  -0.020176
     4  C    0.013432  -0.023104  -0.086248
     5  C   -0.009527  -0.037242   0.044723
     6  C    0.051876   0.015549   0.079983
     7  O   -0.003326  -0.000843   0.014608
     8  O   -0.000173   0.031422  -0.000388
     9  O    0.234086  -0.000346   0.006172
    10  O   -0.000471   0.260799   0.000975
    11  O    0.000792   0.000965   0.257195
    12  H    0.000008  -0.001227  -0.000002
    13  H   -0.000013   0.000274   0.000001
    14  H    0.004223  -0.000062   0.000071
    15  H   -0.000004  -0.000123  -0.000401
    16  H   -0.000013   0.004933  -0.001057
    17  H    0.000014  -0.001163   0.005849
    18  H   -0.004613   0.000138  -0.000030
    19  H    0.362833   0.000008  -0.000026
    20  H    0.000008   0.332969  -0.000036
    21  H   -0.000026  -0.000036   0.342461
 Mulliken atomic charges:
              1
     1  C   -0.199490
     2  C    0.213445
     3  C   -0.016509
     4  C   -0.136803
     5  C    0.101280
     6  C   -0.073378
     7  O   -0.377609
     8  O   -0.438743
     9  O   -0.570422
    10  O   -0.511383
    11  O   -0.505473
    12  H    0.192412
    13  H    0.186604
    14  H    0.193878
    15  H    0.187795
    16  H    0.191464
    17  H    0.193588
    18  H    0.184455
    19  H    0.391018
    20  H    0.399186
    21  H    0.394684
 Sum of Mulliken atomic charges =   0.00000
 Mulliken charges with hydrogens summed into heavy atoms:
              1
     1  C    0.179525
     2  C    0.407324
     3  C    0.171286
     4  C    0.054660
     5  C    0.294868
     6  C    0.111078
     7  O   -0.377609
     8  O   -0.438743
     9  O   -0.179404
    10  O   -0.112197
    11  O   -0.110789
 Sum of Mulliken charges with hydrogens summed into heavy atoms =   0.00000
 Electronic spatial extent (au):  <R**2>=           1321.0592
 Charge=              0.0000 electrons
 Dipole moment (field-independent basis, Debye):
    X=              2.9243    Y=              4.5413    Z=             -0.2590  Tot=              5.4076
 Quadrupole moment (field-independent basis, Debye-Ang):
   XX=            -68.4597   YY=            -55.3747   ZZ=            -73.4456
   XY=             -1.3108   XZ=             -0.0679   YZ=              0.0658
 Traceless Quadrupole moment (field-independent basis, Debye-Ang):
   XX=             -2.6997   YY=             10.3853   ZZ=             -7.6856
   XY=             -1.3108   XZ=             -0.0679   YZ=              0.0658
 Octapole moment (field-independent basis, Debye-Ang**2):
  XXX=             15.5320  YYY=             26.2228  ZZZ=            -15.2268  XYY=              1.5835
  XXY=             17.4556  XXZ=              4.6733  XZZ=              1.7368  YZZ=              5.3973
  YYZ=             -4.6471  XYZ=              7.8213
 Hexadecapole moment (field-independent basis, Debye-Ang**3):
 XXXX=           -679.0477 YYYY=           -416.9639 ZZZZ=           -533.0328 XXXY=              0.4262
 XXXZ=              8.7918 YYYX=            -38.2453 YYYZ=            -19.4729 ZZZX=              3.7964
 ZZZY=             20.4896 XXYY=           -201.4409 XXZZ=           -175.0713 YYZZ=           -160.7168
 XXYZ=            -23.2572 YYXZ=             -0.6790 ZZXY=            -15.6868
 N-N= 7.406818647493D+02 E-N=-2.910994209758D+03  KE= 6.052083742092D+02
 1\1\GINC-COMPUTE-8-21\SP\RmPW1PW91\6-31+G(d,p)\C6H10O5\MMARCARINO.IQUI
 R\12-Apr-2019\0\\# mpw1pw91/6-31+g** nmr scrf=(pcm,solvent=water)\\com
 ment\\0,1\C,0,1.980121,0.629167,0.102945\C,0,0.668334,1.258315,-0.3700
 07\C,0,0.589229,-0.875014,-0.987778\C,0,-0.724215,-0.328953,1.084101\C
 ,0,-0.637993,-1.27077,-0.141327\C,0,-0.489304,1.140097,0.64218\O,0,0.3
 82003,0.421761,-1.509126\O,0,1.75884,-0.78154,-0.14489\O,0,-1.720011,1
 .544757,0.03064\O,0,0.166343,-0.725798,2.121989\O,0,-1.808246,-1.20794
 5,-0.942604\H,0,2.195439,0.777352,1.163138\H,0,2.825116,0.978445,-0.49
 8317\H,0,0.783181,2.284539,-0.727878\H,0,0.776058,-1.561827,-1.81644\H
 ,0,-1.736543,-0.386475,1.496129\H,0,-0.540492,-2.303629,0.208111\H,0,-
 0.270313,1.749448,1.529738\H,0,-1.603428,2.432265,-0.347228\H,0,0.9766
 13,-1.038742,1.680131\H,0,-1.954093,-0.258302,-1.116153\\Version=EM64L
 -G09RevC.01\State=1-A\HF=-610.6484985\RMSD=7.038e-09\Dipole=1.1505214,
 1.7866995,-0.1018985\Quadrupole=-2.0071709,7.7211972,-5.7140263,-0.974
 5301,-0.050477,0.048919\PG=C01 [X(C6H10O5)]\\@


 THERE IS AN OLD, OLD RECIPE IN MAINE FOR STEWING COOT. PLACE THE
 BIRD IN A KETTLE OF WATER WITH A RED BUILDING BRICK FREE OF MORTAR AND
 BLEMISHES. PARBOIL THE COOT AND BRICK TOGETHER FOR THREE HOURS.
 POUR OFF THE WATER, REFILL THE KETTLE, AND AGAIN PARBOIL FOR THREE HOURS.
 ONCE AGAIN POUR OFF THE WATER, FOR THE LAST TIME ADD FRESH WATER,
 AND LET THE COOT AND BRICK SIMMER TOGETHER OVERNIGHT. IN THE MORNING,
 THROW AWAY THE COOT AND EAT THE BRICK.
 Job cpu time:  0 days  0 hours 19 minutes 57.2 seconds.
 File lengths (MBytes):  RWF=     80 Int=      0 D2E=      0 Chk=      5 Scr=      1
 Normal termination of Gaussian 09 at Fri Apr 12 10:24:15 2019.
