 Entering Gaussian System, Link 0=g09
 Input=/home/mmarcarino.iquir/NMR/01_RSR_Levo24_OPTB_nmr.gjc
 Output=/home/mmarcarino.iquir/NMR/01_RSR_Levo24_OPTB_nmr.log
 Initial command:
 /share/apps/Gaussian09/EM64T.SSE4.2-enabled/g09/l1.exe /tmp/Gau-64163.inp -scrdir=/tmp/
 Entering Link 1 = /share/apps/Gaussian09/EM64T.SSE4.2-enabled/g09/l1.exe PID=     64164.
  
 Copyright (c) 1988,1990,1992,1993,1995,1998,2003,2009,2011,
            Gaussian, Inc.  All Rights Reserved.
  
 This is part of the Gaussian(R) 09 program.  It is based on
 the Gaussian(R) 03 system (copyright 2003, Gaussian, Inc.),
 the Gaussian(R) 98 system (copyright 1998, Gaussian, Inc.),
 the Gaussian(R) 94 system (copyright 1995, Gaussian, Inc.),
 the Gaussian 92(TM) system (copyright 1992, Gaussian, Inc.),
 the Gaussian 90(TM) system (copyright 1990, Gaussian, Inc.),
 the Gaussian 88(TM) system (copyright 1988, Gaussian, Inc.),
 the Gaussian 86(TM) system (copyright 1986, Carnegie Mellon
 University), and the Gaussian 82(TM) system (copyright 1983,
 Carnegie Mellon University). Gaussian is a federally registered
 trademark of Gaussian, Inc.
  
 This software contains proprietary and confidential information,
 including trade secrets, belonging to Gaussian, Inc.
  
 This software is provided under written license and may be
 used, copied, transmitted, or stored only in accord with that
 written license.
  
 The following legend is applicable only to US Government
 contracts under FAR:
  
                    RESTRICTED RIGHTS LEGEND
  
 Use, reproduction and disclosure by the US Government is
 subject to restrictions as set forth in subparagraphs (a)
 and (c) of the Commercial Computer Software - Restricted
 Rights clause in FAR 52.227-19.
  
 Gaussian, Inc.
 340 Quinnipiac St., Bldg. 40, Wallingford CT 06492
  
  
 ---------------------------------------------------------------
 Warning -- This program may not be used in any manner that
 competes with the business of Gaussian, Inc. or will provide
 assistance to any competitor of Gaussian, Inc.  The licensee
 of this program is prohibited from giving any competitor of
 Gaussian, Inc. access to this program.  By using this program,
 the user acknowledges that Gaussian, Inc. is engaged in the
 business of creating and licensing software in the field of
 computational chemistry and represents and warrants to the
 licensee that it is not a competitor of Gaussian, Inc. and that
 it will not use this program in any manner prohibited above.
 ---------------------------------------------------------------
  

 Cite this work as:
 Gaussian 09, Revision C.01,
 M. J. Frisch, G. W. Trucks, H. B. Schlegel, G. E. Scuseria, 
 M. A. Robb, J. R. Cheeseman, G. Scalmani, V. Barone, B. Mennucci, 
 G. A. Petersson, H. Nakatsuji, M. Caricato, X. Li, H. P. Hratchian, 
 A. F. Izmaylov, J. Bloino, G. Zheng, J. L. Sonnenberg, M. Hada, 
 M. Ehara, K. Toyota, R. Fukuda, J. Hasegawa, M. Ishida, T. Nakajima, 
 Y. Honda, O. Kitao, H. Nakai, T. Vreven, J. A. Montgomery, Jr., 
 J. E. Peralta, F. Ogliaro, M. Bearpark, J. J. Heyd, E. Brothers, 
 K. N. Kudin, V. N. Staroverov, T. Keith, R. Kobayashi, J. Normand, 
 K. Raghavachari, A. Rendell, J. C. Burant, S. S. Iyengar, J. Tomasi, 
 M. Cossi, N. Rega, J. M. Millam, M. Klene, J. E. Knox, J. B. Cross, 
 V. Bakken, C. Adamo, J. Jaramillo, R. Gomperts, R. E. Stratmann, 
 O. Yazyev, A. J. Austin, R. Cammi, C. Pomelli, J. W. Ochterski, 
 R. L. Martin, K. Morokuma, V. G. Zakrzewski, G. A. Voth, 
 P. Salvador, J. J. Dannenberg, S. Dapprich, A. D. Daniels, 
 O. Farkas, J. B. Foresman, J. V. Ortiz, J. Cioslowski, 
 and D. J. Fox, Gaussian, Inc., Wallingford CT, 2010.
 
 ******************************************
 Gaussian 09:  EM64L-G09RevC.01 23-Sep-2011
                12-Apr-2019 
 ******************************************
 %nprocshared=4
 Will use up to    4 processors via shared memory.
 ------------------------------------------------
 # mpw1pw91/6-31+g** nmr scrf=(pcm,solvent=water)
 ------------------------------------------------
 1/38=1/1;
 2/12=2,17=6,18=5,40=1/2;
 3/5=1,6=6,7=111,11=2,16=1,25=1,30=1,70=2201,72=1,74=-7/1,2,8,3;
 4//1;
 5/5=2,38=5,53=1/2;
 8/6=1,10=90,11=11/1;
 10/13=100,45=16/2;
 6/7=2,8=2,9=2,10=2,28=1/1;
 99/9=1/99;
 -------
 comment
 -------
 Charge =  0 Multiplicity = 1
 Symbolic Z-Matrix:
 6                     2.02372   0.51324   0.01076 
 6                     0.75211   1.17862  -0.51458 
 6                     0.51198  -1.00008  -0.88333 
 6                    -0.72263  -0.12868   1.12492 
 6                    -0.70883  -1.22354   0.03685 
 6                    -0.41189   1.25757   0.49186 
 8                     0.38568   0.23441  -1.54888 
 8                     1.6992   -0.89951  -0.06876 
 8                    -1.56923   1.76343  -0.16782 
 8                     0.15664  -0.45941   2.19595 
 8                    -1.92531  -1.08871  -0.69813 
 1                     2.27038   0.76409   1.04444 
 1                     2.88028   0.72544  -0.63637 
 1                     0.91949   2.14589  -0.99062 
 1                     0.64012  -1.79038  -1.62915 
 1                    -1.72959  -0.07153   1.54986 
 1                    -0.64125  -2.20965   0.51633 
 1                    -0.16654   1.96244   1.2927 
 1                    -1.85254   1.05656  -0.77827 
 1                     0.94082  -0.87139   1.79007 
 1                    -1.90382  -1.69591  -1.4567 
 
                          Input orientation:                          
 ---------------------------------------------------------------------
 Center     Atomic      Atomic             Coordinates (Angstroms)
 Number     Number       Type             X           Y           Z
 ---------------------------------------------------------------------
      1          6           0        2.023719    0.513244    0.010755
      2          6           0        0.752112    1.178624   -0.514583
      3          6           0        0.511982   -1.000077   -0.883327
      4          6           0       -0.722626   -0.128681    1.124924
      5          6           0       -0.708833   -1.223542    0.036848
      6          6           0       -0.411894    1.257565    0.491856
      7          8           0        0.385675    0.234410   -1.548879
      8          8           0        1.699203   -0.899514   -0.068764
      9          8           0       -1.569227    1.763428   -0.167820
     10          8           0        0.156643   -0.459408    2.195953
     11          8           0       -1.925309   -1.088711   -0.698129
     12          1           0        2.270375    0.764087    1.044440
     13          1           0        2.880282    0.725439   -0.636371
     14          1           0        0.919494    2.145894   -0.990617
     15          1           0        0.640117   -1.790376   -1.629148
     16          1           0       -1.729589   -0.071527    1.549864
     17          1           0       -0.641252   -2.209649    0.516326
     18          1           0       -0.166542    1.962441    1.292701
     19          1           0       -1.852535    1.056559   -0.778273
     20          1           0        0.940816   -0.871394    1.790066
     21          1           0       -1.903816   -1.695906   -1.456703
 ---------------------------------------------------------------------
                    Distance matrix (angstroms):
                    1          2          3          4          5
     1  C    0.000000
     2  C    1.528298   0.000000
     3  C    2.318377   2.222695   0.000000
     4  C    3.032466   2.563568   2.513297   0.000000
     5  C    3.237892   2.865107   1.545007   1.543639   0.000000
     6  C    2.591849   1.540799   2.800290   1.555316   2.539901
     7  O    2.278902   1.447613   1.408145   2.917086   2.416216
     8  O    1.451730   2.326885   1.443302   2.807905   2.432033
     9  O    3.808426   2.418854   3.532753   2.442948   3.115150
    10  O    3.034323   3.222536   3.146515   1.424639   2.448404
    11  O    4.320139   3.513272   2.445923   2.385713   1.427650
    12  H    1.091909   2.215291   3.149684   3.124351   3.720429
    13  H    1.094303   2.179293   2.940619   4.100320   4.139263
    14  H    2.210793   1.090980   3.174068   3.513654   3.880751
    15  H    3.148063   3.173288   1.094185   3.493310   2.217320
    16  H    4.098553   3.461742   3.436170   1.094447   2.158309
    17  H    3.843412   3.805868   2.179918   2.169664   1.098578
    18  H    2.922465   2.173608   3.737915   2.170293   3.467237
    19  H    3.992881   2.620805   3.135559   2.510706   2.677935
    20  H    2.501170   3.090241   2.710625   1.939349   2.432925
    21  H    4.739125   4.025477   2.578569   3.242869   1.970230
                    6          7          8          9         10
     6  C    0.000000
     7  O    2.418173   0.000000
     8  O    3.069856   2.280763   0.000000
     9  O    1.424952   2.840222   4.217073   0.000000
    10  O    2.484990   3.815443   2.775271   3.675194   0.000000
    11  O    3.035045   2.795545   3.683610   2.922793   3.620256
    12  H    2.782703   3.249301   2.081593   4.148590   2.700145
    13  H    3.520579   2.701267   2.087486   4.592939   4.104160
    14  H    2.181616   2.061647   3.276014   2.648963   4.186140
    15  H    3.859447   2.042288   2.085688   4.432404   4.078801
    16  H    2.149927   3.764326   3.880996   2.518574   2.031195
    17  H    3.474878   3.360517   2.745271   4.136972   2.553650
    18  H    1.094715   3.371292   3.677686   2.034761   2.604931
    19  H    1.931082   2.505862   4.116366   0.976002   3.896277
    20  H    2.836836   3.560834   2.007782   4.132302   0.974374
    21  H    3.840014   2.996062   3.942380   3.706772   4.372221
                   11         12         13         14         15
    11  O    0.000000
    12  H    4.906442   0.000000
    13  H    5.136989   1.788465   0.000000
    14  H    4.317537   2.806373   2.447013   0.000000
    15  H    2.817897   4.041175   3.511876   3.997499   0.000000
    16  H    2.475165   4.117453   5.163883   4.288198   4.321581
    17  H    2.092894   4.195186   4.727013   4.865959   2.533921
    18  H    4.045515   2.726949   3.812431   2.535088   4.824058
    19  H    2.148000   4.517323   4.746507   2.985948   3.878446
    20  H    3.801712   2.235729   3.492707   4.103252   3.553304
    21  H    0.971896   5.452628   5.424339   4.790380   2.551521
                   16         17         18         19         20
    16  H    0.000000
    17  H    2.612325   0.000000
    18  H    2.578037   4.270181   0.000000
    19  H    2.589964   3.716357   2.819952   0.000000
    20  H    2.797954   2.432340   3.082894   4.256310   0.000000
    21  H    3.421755   2.398092   4.894982   2.835306   4.394685
                   21
    21  H    0.000000
 Stoichiometry    C6H10O5
 Framework group  C1[X(C6H10O5)]
 Deg. of freedom    57
 Full point group                 C1      NOp   1
 Largest Abelian subgroup         C1      NOp   1
 Largest concise Abelian subgroup C1      NOp   1
                         Standard orientation:                         
 ---------------------------------------------------------------------
 Center     Atomic      Atomic             Coordinates (Angstroms)
 Number     Number       Type             X           Y           Z
 ---------------------------------------------------------------------
      1          6           0        2.023719    0.513243    0.010755
      2          6           0        0.752113    1.178624   -0.514583
      3          6           0        0.511982   -1.000077   -0.883327
      4          6           0       -0.722626   -0.128681    1.124924
      5          6           0       -0.708833   -1.223542    0.036848
      6          6           0       -0.411893    1.257565    0.491856
      7          8           0        0.385675    0.234410   -1.548879
      8          8           0        1.699203   -0.899515   -0.068764
      9          8           0       -1.569226    1.763429   -0.167820
     10          8           0        0.156643   -0.459408    2.195953
     11          8           0       -1.925309   -1.088710   -0.698129
     12          1           0        2.270375    0.764086    1.044440
     13          1           0        2.880282    0.725438   -0.636371
     14          1           0        0.919495    2.145893   -0.990617
     15          1           0        0.640116   -1.790376   -1.629148
     16          1           0       -1.729589   -0.071526    1.549864
     17          1           0       -0.641253   -2.209649    0.516326
     18          1           0       -0.166541    1.962441    1.292701
     19          1           0       -1.852534    1.056560   -0.778273
     20          1           0        0.940816   -0.871395    1.790066
     21          1           0       -1.903817   -1.695905   -1.456703
 ---------------------------------------------------------------------
 Rotational constants (GHZ):      1.4569398      1.2119253      1.1873526
 Standard basis: 6-31+G(d,p) (6D, 7F)
 There are   259 symmetry adapted basis functions of A   symmetry.
 Integral buffers will be    131072 words long.
 Raffenetti 2 integral format.
 Two-electron integral symmetry is turned on.
   259 basis functions,   422 primitive gaussians,   259 cartesian basis functions
    43 alpha electrons       43 beta electrons
       nuclear repulsion energy       740.4769601873 Hartrees.
 NAtoms=   21 NActive=   21 NUniq=   21 SFac= 1.00D+00 NAtFMM=   60 NAOKFM=F Big=F
 ------------------------------------------------------------------------------
 Polarizable Continuum Model (PCM)
 =================================
 Model                : PCM.
 Atomic radii         : UFF (Universal Force Field).
 Polarization charges : Total charges.
 Charge compensation  : None.
 Solution method      : Matrix inversion.
 Cavity type          : Scaled VdW (van der Waals Surface) (Alpha=1.100).
 Cavity algorithm     : GePol (No added spheres)
                        Default sphere list used, NSphG=   21.
                        Lebedev-Laikov grids with approx.  5.0 points / Ang**2.
                        Smoothing algorithm: Karplus/York (Gamma=1.0000).
                        Polarization charges: spherical gaussians, with
                                              point-specific exponents (IZeta= 3).
                        Self-potential: point-specific (ISelfS= 7).
                        Self-field    : sphere-specific E.n sum rule (ISelfD= 2).
 Solvent              : Water, Eps=  78.355300 Eps(inf)=   1.777849
 ------------------------------------------------------------------------------
 One-electron integrals computed using PRISM.
 NBasis=   259 RedAO= T  NBF=   259
 NBsUse=   259 1.00D-06 NBFU=   259
 Harris functional with IExCor=  908 diagonalized for initial guess.
 ExpMin= 4.38D-02 ExpMax= 5.48D+03 ExpMxC= 8.25D+02 IAcc=2 IRadAn=         4 AccDes= 0.00D+00
 HarFok:  IExCor=  908 AccDes= 0.00D+00 IRadAn=         4 IDoV= 1
 ScaDFX=  1.000000  1.000000  1.000000  1.000000
 FoFCou: FMM=F IPFlag=           0 FMFlag=      100000 FMFlg1=           0
         NFxFlg=           0 DoJE=T BraDBF=F KetDBF=T FulRan=T
         Omega=  0.000000  0.000000  1.000000  0.000000  0.000000 ICntrl=     500 IOpCl=  0
         NMat0=    1 NMatS0=    1 NMatT0=    0 NMatD0=    1 NMtDS0=    0 NMtDT0=    0
         I1Cent=           4 NGrid=           0.
 Petite list used in FoFCou.
 Initial guess orbital symmetries:
       Occupied  (A) (A) (A) (A) (A) (A) (A) (A) (A) (A) (A) (A)
                 (A) (A) (A) (A) (A) (A) (A) (A) (A) (A) (A) (A)
                 (A) (A) (A) (A) (A) (A) (A) (A) (A) (A) (A) (A)
                 (A) (A) (A) (A) (A) (A) (A)
       Virtual   (A) (A) (A) (A) (A) (A) (A) (A) (A) (A) (A) (A)
                 (A) (A) (A) (A) (A) (A) (A) (A) (A) (A) (A) (A)
                 (A) (A) (A) (A) (A) (A) (A) (A) (A) (A) (A) (A)
                 (A) (A) (A) (A) (A) (A) (A) (A) (A) (A) (A) (A)
                 (A) (A) (A) (A) (A) (A) (A) (A) (A) (A) (A) (A)
                 (A) (A) (A) (A) (A) (A) (A) (A) (A) (A) (A) (A)
                 (A) (A) (A) (A) (A) (A) (A) (A) (A) (A) (A) (A)
                 (A) (A) (A) (A) (A) (A) (A) (A) (A) (A) (A) (A)
                 (A) (A) (A) (A) (A) (A) (A) (A) (A) (A) (A) (A)
                 (A) (A) (A) (A) (A) (A) (A) (A) (A) (A) (A) (A)
                 (A) (A) (A) (A) (A) (A) (A) (A) (A) (A) (A) (A)
                 (A) (A) (A) (A) (A) (A) (A) (A) (A) (A) (A) (A)
                 (A) (A) (A) (A) (A) (A) (A) (A) (A) (A) (A) (A)
                 (A) (A) (A) (A) (A) (A) (A) (A) (A) (A) (A) (A)
                 (A) (A) (A) (A) (A) (A) (A) (A) (A) (A) (A) (A)
                 (A) (A) (A) (A) (A) (A) (A) (A) (A) (A) (A) (A)
                 (A) (A) (A) (A) (A) (A) (A) (A) (A) (A) (A) (A)
                 (A) (A) (A) (A) (A) (A) (A) (A) (A) (A) (A) (A)
 The electronic state of the initial guess is 1-A.
 Requested convergence on RMS density matrix=1.00D-08 within 128 cycles.
 Requested convergence on MAX density matrix=1.00D-06.
 Requested convergence on             energy=1.00D-06.
 No special actions if energy rises.
 Error on total polarization charges =  0.01147
 SCF Done:  E(RmPW1PW91) =  -610.647844589     A.U. after   12 cycles
             Convg  =    0.7334D-08             -V/T =  2.0090
 Range of M.O.s used for correlation:     1   259
 NBasis=   259 NAE=    43 NBE=    43 NFC=     0 NFV=     0
 NROrb=    259 NOA=    43 NOB=    43 NVA=   216 NVB=   216

 **** Warning!!: The largest alpha MO coefficient is  0.71771349D+02

 NEqPCM:  Using equilibrium solvation (IEInf=0, Eps=  78.3553, EpsInf=   1.7778)
          Differentiating once with respect to magnetic field using GIAOs.
          Electric field/nuclear overlap derivatives assumed to be zero.
 FoFCou: FMM=F IPFlag=           0 FMFlag=    10101102 FMFlg1=           0
         NFxFlg=    40000000 DoJE=F BraDBF=F KetDBF=T FulRan=T
         Omega=  0.000000  0.000000  1.000000  0.000000  0.000000 ICntrl=    6100 IOpCl=  0
         NMat0=    1 NMatS0=    1 NMatT0=    0 NMatD0=    1 NMtDS0=    0 NMtDT0=    0
         I1Cent=           7 NGrid=        1482.
 Symmetry not used in FoFCou.
          There are     3 degrees of freedom in the 1st order CPHF.  IDoFFX=0.
      3 vectors produced by pass  0 Test12= 3.10D-13 3.33D-08 XBig12= 1.74D+01 9.04D-01.
 AX will form     3 AO Fock derivatives at one time.
      3 vectors produced by pass  1 Test12= 3.10D-13 3.33D-08 XBig12= 3.94D-02 2.46D-02.
      3 vectors produced by pass  2 Test12= 3.10D-13 3.33D-08 XBig12= 8.12D-05 1.42D-03.
      3 vectors produced by pass  3 Test12= 3.10D-13 3.33D-08 XBig12= 3.84D-07 1.29D-04.
      3 vectors produced by pass  4 Test12= 3.10D-13 3.33D-08 XBig12= 1.16D-09 5.26D-06.
      3 vectors produced by pass  5 Test12= 3.10D-13 3.33D-08 XBig12= 4.49D-12 3.70D-07.
 Inverted reduced A of dimension    18 with in-core refinement.
 Calculating GIAO nuclear magnetic shielding tensors.
 SCF GIAO Magnetic shielding tensor (ppm):
      1  C    Isotropic =   129.4798   Anisotropy =    61.0151
   XX=   117.5353   YX=    12.1998   ZX=     8.4140
   XY=     4.7278   YY=   168.6919   ZY=    -1.7194
   XZ=     1.1488   YZ=     5.4652   ZZ=   102.2124
   Eigenvalues:   100.8384   117.4445   170.1566
      2  C    Isotropic =   115.4450   Anisotropy =    44.3580
   XX=   110.8609   YX=     0.5674   ZX=    15.9701
   XY=     1.6625   YY=   117.8147   ZY=    19.2315
   XZ=     3.0436   YZ=    31.9672   ZZ=   117.6593
   Eigenvalues:    90.3227   110.9953   145.0169
      3  C    Isotropic =    91.8624   Anisotropy =    37.0448
   XX=   105.4611   YX=     6.3417   ZX=    24.6774
   XY=     3.3576   YY=    87.1123   ZY=    -6.4285
   XZ=    13.3515   YZ=   -20.4700   ZZ=    83.0137
   Eigenvalues:    63.6583    95.3698   116.5589
      4  C    Isotropic =   122.4146   Anisotropy =    51.2633
   XX=   138.7138   YX=    -5.7869   ZX=    27.6805
   XY=    -4.0094   YY=   108.3293   ZY=   -14.0318
   XZ=    18.4585   YZ=    -8.5687   ZZ=   120.2006
   Eigenvalues:    98.8156   111.8380   156.5901
      5  C    Isotropic =   124.0080   Anisotropy =    49.4127
   XX=   134.5582   YX=    -5.2543   ZX=    21.7432
   XY=    -8.9085   YY=   113.4172   ZY=    -8.5325
   XZ=    28.0916   YZ=    -4.9379   ZZ=   124.0487
   Eigenvalues:   103.7619   111.3123   156.9498
      6  C    Isotropic =   123.2561   Anisotropy =    50.2784
   XX=   134.8747   YX=   -10.0597   ZX=    20.5675
   XY=    -7.6489   YY=   109.7424   ZY=    -6.7020
   XZ=    25.7120   YZ=    -9.9000   ZZ=   125.1513
   Eigenvalues:   105.6493   107.3440   156.7750
      7  O    Isotropic =   255.7878   Anisotropy =    68.9410
   XX=   257.3178   YX=    28.1764   ZX=    40.3795
   XY=     6.5683   YY=   277.7669   ZY=   -12.6682
   XZ=    65.2170   YZ=    -7.1118   ZZ=   232.2788
   Eigenvalues:   186.7421   278.8730   301.7485
      8  O    Isotropic =   263.0711   Anisotropy =   105.9813
   XX=   265.9993   YX=    -6.6441   ZX=    69.6710
   XY=    -0.5856   YY=   297.1507   ZY=   -19.1519
   XZ=    67.6522   YZ=   -47.9334   ZZ=   226.0634
   Eigenvalues:   169.6204   285.8677   333.7254
      9  O    Isotropic =   285.4856   Anisotropy =    36.9977
   XX=   278.5486   YX=    -1.9217   ZX=     0.1506
   XY=   -15.9661   YY=   295.4663   ZY=   -16.0553
   XZ=    14.1028   YZ=   -15.5320   ZZ=   282.4420
   Eigenvalues:   271.5891   274.7170   310.1507
     10  O    Isotropic =   288.1901   Anisotropy =    38.0082
   XX=   284.9438   YX=   -19.7117   ZX=    22.5277
   XY=   -16.9855   YY=   279.9378   ZY=     3.0421
   XZ=     9.9427   YZ=    -2.2754   ZZ=   299.6887
   Eigenvalues:   260.5445   290.4969   313.5289
     11  O    Isotropic =   292.8434   Anisotropy =    65.3307
   XX=   280.2792   YX=     0.8271   ZX=    -3.5820
   XY=    14.8385   YY=   284.9435   ZY=    35.4957
   XZ=    15.5414   YZ=    30.0873   ZZ=   313.3076
   Eigenvalues:   262.7469   279.3862   336.3973
     12  H    Isotropic =    27.3313   Anisotropy =     6.9429
   XX=    28.0763   YX=     2.5657   ZX=     1.5350
   XY=     2.8347   YY=    26.2399   ZY=     2.8239
   XZ=     2.7202   YZ=     1.1389   ZZ=    27.6778
   Eigenvalues:    24.2369    25.7972    31.9600
     13  H    Isotropic =    27.6718   Anisotropy =    11.4154
   XX=    32.1144   YX=     3.2888   ZX=    -2.8096
   XY=     4.1754   YY=    27.3604   ZY=    -1.8704
   XZ=    -3.6950   YZ=    -1.3500   ZZ=    23.5406
   Eigenvalues:    22.4136    25.3197    35.2821
     14  H    Isotropic =    26.9838   Anisotropy =     8.1811
   XX=    24.9867   YX=     2.8423   ZX=    -1.3974
   XY=     1.5277   YY=    31.4796   ZY=    -1.9690
   XZ=    -0.4904   YZ=    -0.6318   ZZ=    24.4852
   Eigenvalues:    23.7392    24.7744    32.4379
     15  H    Isotropic =    26.0475   Anisotropy =     7.6527
   XX=    24.0182   YX=    -0.4188   ZX=    -0.0693
   XY=    -0.9880   YY=    28.4004   ZY=     3.7471
   XZ=    -0.0640   YZ=     3.8649   ZZ=    25.7240
   Eigenvalues:    22.9109    24.0824    31.1493
     16  H    Isotropic =    27.7635   Anisotropy =     4.9780
   XX=    30.2908   YX=    -0.7677   ZX=    -1.8626
   XY=    -0.4454   YY=    24.2621   ZY=    -1.0374
   XZ=    -0.8615   YZ=    -1.1517   ZZ=    28.7376
   Eigenvalues:    23.8773    28.3310    31.0822
     17  H    Isotropic =    27.7684   Anisotropy =     5.5456
   XX=    27.1242   YX=     0.5785   ZX=     2.5180
   XY=     1.1245   YY=    30.3384   ZY=    -2.3828
   XZ=     1.5125   YZ=    -2.6505   ZZ=    25.8425
   Eigenvalues:    23.4233    28.4164    31.4655
     18  H    Isotropic =    27.9811   Anisotropy =     6.0566
   XX=    26.6490   YX=    -0.6494   ZX=     2.4379
   XY=    -1.3685   YY=    28.3074   ZY=     3.0805
   XZ=     1.0690   YZ=     3.4646   ZZ=    28.9868
   Eigenvalues:    23.9570    27.9674    32.0188
     19  H    Isotropic =    27.9626   Anisotropy =    15.8842
   XX=    26.2412   YX=     0.6766   ZX=     6.8966
   XY=     2.3718   YY=    32.2147   ZY=     6.8672
   XZ=     5.3643   YZ=     7.3502   ZZ=    25.4318
   Eigenvalues:    18.1889    27.1468    38.5521
     20  H    Isotropic =    28.1834   Anisotropy =    16.3600
   XX=    33.2196   YX=    -6.8780   ZX=    -5.5049
   XY=    -7.4295   YY=    21.1491   ZY=     0.6154
   XZ=    -4.3923   YZ=     0.5439   ZZ=    30.1815
   Eigenvalues:    17.6111    27.8490    39.0900
     21  H    Isotropic =    29.8802   Anisotropy =    19.7145
   XX=    26.5856   YX=     1.8131   ZX=     4.2310
   XY=     2.1389   YY=    29.2165   ZY=     9.8600
   XZ=     3.4729   YZ=    10.4157   ZZ=    33.8386
   Eigenvalues:    20.9749    25.6426    43.0232
 End of Minotr Frequency-dependent properties file   721 does not exist.
 End of Minotr Frequency-dependent properties file   722 does not exist.

 **********************************************************************

            Population analysis using the SCF density.

 **********************************************************************

 Orbital symmetries:
       Occupied  (A) (A) (A) (A) (A) (A) (A) (A) (A) (A) (A) (A)
                 (A) (A) (A) (A) (A) (A) (A) (A) (A) (A) (A) (A)
                 (A) (A) (A) (A) (A) (A) (A) (A) (A) (A) (A) (A)
                 (A) (A) (A) (A) (A) (A) (A)
       Virtual   (A) (A) (A) (A) (A) (A) (A) (A) (A) (A) (A) (A)
                 (A) (A) (A) (A) (A) (A) (A) (A) (A) (A) (A) (A)
                 (A) (A) (A) (A) (A) (A) (A) (A) (A) (A) (A) (A)
                 (A) (A) (A) (A) (A) (A) (A) (A) (A) (A) (A) (A)
                 (A) (A) (A) (A) (A) (A) (A) (A) (A) (A) (A) (A)
                 (A) (A) (A) (A) (A) (A) (A) (A) (A) (A) (A) (A)
                 (A) (A) (A) (A) (A) (A) (A) (A) (A) (A) (A) (A)
                 (A) (A) (A) (A) (A) (A) (A) (A) (A) (A) (A) (A)
                 (A) (A) (A) (A) (A) (A) (A) (A) (A) (A) (A) (A)
                 (A) (A) (A) (A) (A) (A) (A) (A) (A) (A) (A) (A)
                 (A) (A) (A) (A) (A) (A) (A) (A) (A) (A) (A) (A)
                 (A) (A) (A) (A) (A) (A) (A) (A) (A) (A) (A) (A)
                 (A) (A) (A) (A) (A) (A) (A) (A) (A) (A) (A) (A)
                 (A) (A) (A) (A) (A) (A) (A) (A) (A) (A) (A) (A)
                 (A) (A) (A) (A) (A) (A) (A) (A) (A) (A) (A) (A)
                 (A) (A) (A) (A) (A) (A) (A) (A) (A) (A) (A) (A)
                 (A) (A) (A) (A) (A) (A) (A) (A) (A) (A) (A) (A)
                 (A) (A) (A) (A) (A) (A) (A) (A) (A) (A) (A) (A)
 The electronic state is 1-A.
 Alpha  occ. eigenvalues --  -19.28206 -19.28133 -19.27577 -19.25975 -19.25698
 Alpha  occ. eigenvalues --  -10.36564 -10.31921 -10.31888 -10.31506 -10.31297
 Alpha  occ. eigenvalues --  -10.31238  -1.14992  -1.08194  -1.06758  -1.06411
 Alpha  occ. eigenvalues --   -1.04206  -0.82540  -0.80681  -0.70665  -0.68947
 Alpha  occ. eigenvalues --   -0.65877  -0.61305  -0.58579  -0.55678  -0.54079
 Alpha  occ. eigenvalues --   -0.51826  -0.49859  -0.49005  -0.48054  -0.46378
 Alpha  occ. eigenvalues --   -0.46200  -0.44018  -0.41779  -0.41003  -0.39047
 Alpha  occ. eigenvalues --   -0.38282  -0.37647  -0.36142  -0.33618  -0.32807
 Alpha  occ. eigenvalues --   -0.30815  -0.28690  -0.28081
 Alpha virt. eigenvalues --    0.00695   0.01245   0.02557   0.02821   0.03725
 Alpha virt. eigenvalues --    0.04466   0.05018   0.05267   0.05872   0.08189
 Alpha virt. eigenvalues --    0.08564   0.09658   0.09910   0.10281   0.11418
 Alpha virt. eigenvalues --    0.11962   0.12432   0.13527   0.13677   0.13931
 Alpha virt. eigenvalues --    0.14605   0.15884   0.16798   0.17224   0.17550
 Alpha virt. eigenvalues --    0.17927   0.18699   0.19601   0.19948   0.20818
 Alpha virt. eigenvalues --    0.20985   0.21952   0.22819   0.22927   0.23453
 Alpha virt. eigenvalues --    0.24696   0.25433   0.25580   0.26724   0.27162
 Alpha virt. eigenvalues --    0.27682   0.28661   0.29236   0.29932   0.30643
 Alpha virt. eigenvalues --    0.31008   0.31606   0.32227   0.33547   0.34237
 Alpha virt. eigenvalues --    0.34528   0.35421   0.35597   0.36609   0.37027
 Alpha virt. eigenvalues --    0.37319   0.38196   0.39263   0.39430   0.40063
 Alpha virt. eigenvalues --    0.42291   0.43651   0.45955   0.46189   0.48184
 Alpha virt. eigenvalues --    0.52667   0.64308   0.66385   0.67121   0.68494
 Alpha virt. eigenvalues --    0.69546   0.71086   0.71661   0.75932   0.76524
 Alpha virt. eigenvalues --    0.79702   0.81243   0.82509   0.83770   0.87150
 Alpha virt. eigenvalues --    0.88538   0.92651   0.95689   0.98180   1.00383
 Alpha virt. eigenvalues --    1.02774   1.03918   1.05352   1.05884   1.07802
 Alpha virt. eigenvalues --    1.09642   1.09956   1.10857   1.12400   1.13589
 Alpha virt. eigenvalues --    1.19142   1.20207   1.24161   1.25077   1.27050
 Alpha virt. eigenvalues --    1.27669   1.28424   1.29568   1.31204   1.33096
 Alpha virt. eigenvalues --    1.34874   1.38126   1.38917   1.41260   1.43100
 Alpha virt. eigenvalues --    1.44221   1.45604   1.47039   1.49552   1.50498
 Alpha virt. eigenvalues --    1.53872   1.54569   1.56959   1.57741   1.62221
 Alpha virt. eigenvalues --    1.64432   1.65711   1.66868   1.67558   1.69459
 Alpha virt. eigenvalues --    1.71908   1.74768   1.75301   1.77378   1.78678
 Alpha virt. eigenvalues --    1.79061   1.83617   1.84658   1.84933   1.87863
 Alpha virt. eigenvalues --    1.91170   1.94280   1.95833   1.96731   1.97665
 Alpha virt. eigenvalues --    2.01439   2.03142   2.05207   2.06328   2.07540
 Alpha virt. eigenvalues --    2.10171   2.11127   2.12854   2.16007   2.17507
 Alpha virt. eigenvalues --    2.19768   2.21928   2.24598   2.27998   2.29654
 Alpha virt. eigenvalues --    2.33617   2.36344   2.38485   2.40905   2.42269
 Alpha virt. eigenvalues --    2.44879   2.46156   2.49842   2.50948   2.51763
 Alpha virt. eigenvalues --    2.52593   2.55158   2.59731   2.63342   2.64796
 Alpha virt. eigenvalues --    2.66080   2.67150   2.70127   2.70680   2.70913
 Alpha virt. eigenvalues --    2.72620   2.73046   2.74925   2.77306   2.80768
 Alpha virt. eigenvalues --    2.83593   2.86340   2.87319   2.90032   2.90703
 Alpha virt. eigenvalues --    2.92083   2.96288   2.98556   2.99879   3.03890
 Alpha virt. eigenvalues --    3.05191   3.07304   3.09514   3.19000   3.23991
 Alpha virt. eigenvalues --    3.35399   3.40758   3.45464   3.47937   3.50013
 Alpha virt. eigenvalues --    3.50217   3.52985   3.56691   3.61933   3.63443
 Alpha virt. eigenvalues --    4.30844   4.34711   4.45176   4.50460   4.54885
 Alpha virt. eigenvalues --    4.56579   4.63470   4.82313   4.88426   4.97476
 Alpha virt. eigenvalues --    5.07268
          Condensed to atoms (all electrons):
              1          2          3          4          5          6
     1  C    5.851808  -0.512696  -0.335976  -0.464866   0.289445   0.312892
     2  C   -0.512696   7.003870  -0.422252   0.636527  -0.057313  -0.908971
     3  C   -0.335976  -0.422252   6.815001   0.326402  -1.291718   0.231334
     4  C   -0.464866   0.636527   0.326402   6.989672  -0.628785  -0.800140
     5  C    0.289445  -0.057313  -1.291718  -0.628785   7.371712  -0.089994
     6  C    0.312892  -0.908971   0.231334  -0.800140  -0.089994   6.686746
     7  O    0.039849   0.078603   0.283152  -0.138680  -0.042859  -0.060453
     8  O    0.077403  -0.034758   0.294599   0.014927  -0.262746   0.009552
     9  O    0.017999  -0.153021  -0.023396  -0.084971   0.012467   0.339354
    10  O    0.024873  -0.011138  -0.040921   0.278143  -0.034077  -0.116242
    11  O    0.011488  -0.071351  -0.006393  -0.127613   0.112879   0.085832
    12  H    0.464894  -0.132568   0.014344  -0.021857   0.009248   0.037224
    13  H    0.359082   0.012257  -0.015702   0.000809   0.002884   0.010853
    14  H    0.023940   0.289591   0.004858   0.001535  -0.006030   0.025977
    15  H   -0.004295   0.046199   0.307276   0.017826   0.023811  -0.021476
    16  H    0.003108  -0.005439   0.018118   0.307099  -0.015407   0.020529
    17  H    0.015659  -0.035498   0.045743  -0.048265   0.282755   0.030589
    18  H    0.024619  -0.010011  -0.047038  -0.071903   0.075612   0.344945
    19  H    0.002019  -0.020569  -0.035439  -0.069165   0.081517   0.023841
    20  H   -0.000255  -0.010112   0.025160  -0.020683  -0.031658   0.011875
    21  H   -0.002484   0.014825  -0.041378   0.026795   0.036759  -0.019459
              7          8          9         10         11         12
     1  C    0.039849   0.077403   0.017999   0.024873   0.011488   0.464894
     2  C    0.078603  -0.034758  -0.153021  -0.011138  -0.071351  -0.132568
     3  C    0.283152   0.294599  -0.023396  -0.040921  -0.006393   0.014344
     4  C   -0.138680   0.014927  -0.084971   0.278143  -0.127613  -0.021857
     5  C   -0.042859  -0.262746   0.012467  -0.034077   0.112879   0.009248
     6  C   -0.060453   0.009552   0.339354  -0.116242   0.085832   0.037224
     7  O    8.306403  -0.070490   0.012993   0.003227   0.008610   0.012109
     8  O   -0.070490   8.471931   0.000948   0.005448   0.018978  -0.056382
     9  O    0.012993   0.000948   8.191758   0.008824  -0.013425   0.000090
    10  O    0.003227   0.005448   0.008824   8.163341   0.010462   0.000841
    11  O    0.008610   0.018978  -0.013425   0.010462   8.324508  -0.000050
    12  H    0.012109  -0.056382   0.000090   0.000841  -0.000050   0.511573
    13  H   -0.006459  -0.036129  -0.000359   0.000004   0.000109  -0.032513
    14  H   -0.036421   0.008134   0.002077   0.000053   0.000650   0.001505
    15  H   -0.046149  -0.036796   0.000145  -0.000297  -0.008001  -0.000208
    16  H   -0.001556   0.003045   0.000454  -0.044125   0.001269  -0.000056
    17  H    0.009441   0.001103  -0.000756   0.002414  -0.026522   0.000006
    18  H    0.012080  -0.002750  -0.044991   0.001735  -0.001207   0.000843
    19  H    0.014854  -0.001096   0.256137   0.000375   0.004119   0.000000
    20  H   -0.001383   0.032093  -0.000047   0.259698   0.000957  -0.001096
    21  H   -0.003741   0.000061   0.001073  -0.000554   0.233966   0.000000
             13         14         15         16         17         18
     1  C    0.359082   0.023940  -0.004295   0.003108   0.015659   0.024619
     2  C    0.012257   0.289591   0.046199  -0.005439  -0.035498  -0.010011
     3  C   -0.015702   0.004858   0.307276   0.018118   0.045743  -0.047038
     4  C    0.000809   0.001535   0.017826   0.307099  -0.048265  -0.071903
     5  C    0.002884  -0.006030   0.023811  -0.015407   0.282755   0.075612
     6  C    0.010853   0.025977  -0.021476   0.020529   0.030589   0.344945
     7  O   -0.006459  -0.036421  -0.046149  -0.001556   0.009441   0.012080
     8  O   -0.036129   0.008134  -0.036796   0.003045   0.001103  -0.002750
     9  O   -0.000359   0.002077   0.000145   0.000454  -0.000756  -0.044991
    10  O    0.000004   0.000053  -0.000297  -0.044125   0.002414   0.001735
    11  O    0.000109   0.000650  -0.008001   0.001269  -0.026522  -0.001207
    12  H   -0.032513   0.001505  -0.000208  -0.000056   0.000006   0.000843
    13  H    0.520757  -0.002711   0.000569   0.000004  -0.000003  -0.000043
    14  H   -0.002711   0.496243   0.000037  -0.000128   0.000022  -0.001945
    15  H    0.000569   0.000037   0.528824  -0.000127  -0.003130   0.000025
    16  H    0.000004  -0.000128  -0.000127   0.524441  -0.003297  -0.003887
    17  H   -0.000003   0.000022  -0.003130  -0.003297   0.543074  -0.000119
    18  H   -0.000043  -0.001945   0.000025  -0.003887  -0.000119   0.532651
    19  H   -0.000001  -0.000676   0.000048  -0.001149  -0.000060   0.005939
    20  H    0.000281  -0.000053  -0.000122   0.004972  -0.001347   0.000003
    21  H    0.000001  -0.000005   0.003449   0.000064  -0.004543   0.000014
             19         20         21
     1  C    0.002019  -0.000255  -0.002484
     2  C   -0.020569  -0.010112   0.014825
     3  C   -0.035439   0.025160  -0.041378
     4  C   -0.069165  -0.020683   0.026795
     5  C    0.081517  -0.031658   0.036759
     6  C    0.023841   0.011875  -0.019459
     7  O    0.014854  -0.001383  -0.003741
     8  O   -0.001096   0.032093   0.000061
     9  O    0.256137  -0.000047   0.001073
    10  O    0.000375   0.259698  -0.000554
    11  O    0.004119   0.000957   0.233966
    12  H    0.000000  -0.001096   0.000000
    13  H   -0.000001   0.000281   0.000001
    14  H   -0.000676  -0.000053  -0.000005
    15  H    0.000048  -0.000122   0.003449
    16  H   -0.001149   0.004972   0.000064
    17  H   -0.000060  -0.001347  -0.004543
    18  H    0.005939   0.000003   0.000014
    19  H    0.345133  -0.000017  -0.000073
    20  H   -0.000017   0.333279  -0.000013
    21  H   -0.000073  -0.000013   0.360818
 Mulliken atomic charges:
              1
     1  C   -0.198504
     2  C    0.303823
     3  C   -0.105776
     4  C   -0.122807
     5  C    0.161496
     6  C   -0.154810
     7  O   -0.373129
     8  O   -0.437073
     9  O   -0.523355
    10  O   -0.512083
    11  O   -0.559266
    12  H    0.192053
    13  H    0.186309
    14  H    0.193345
    15  H    0.192392
    16  H    0.192068
    17  H    0.192733
    18  H    0.185429
    19  H    0.394262
    20  H    0.398470
    21  H    0.394423
 Sum of Mulliken atomic charges =   0.00000
 Mulliken charges with hydrogens summed into heavy atoms:
              1
     1  C    0.179858
     2  C    0.497169
     3  C    0.086616
     4  C    0.069261
     5  C    0.354229
     6  C    0.030619
     7  O   -0.373129
     8  O   -0.437073
     9  O   -0.129093
    10  O   -0.113613
    11  O   -0.164843
 Sum of Mulliken charges with hydrogens summed into heavy atoms =   0.00000
 Electronic spatial extent (au):  <R**2>=           1322.0084
 Charge=              0.0000 electrons
 Dipole moment (field-independent basis, Debye):
    X=              2.5104    Y=             -2.1106    Z=             -2.0859  Tot=              3.8868
 Quadrupole moment (field-independent basis, Debye-Ang):
   XX=            -66.2265   YY=            -61.1244   ZZ=            -69.8734
   XY=              9.6920   XZ=              2.9601   YZ=              5.8344
 Traceless Quadrupole moment (field-independent basis, Debye-Ang):
   XX=             -0.4851   YY=              4.6170   ZZ=             -4.1320
   XY=              9.6920   XZ=              2.9601   YZ=              5.8344
 Octapole moment (field-independent basis, Debye-Ang**2):
  XXX=             13.3180  YYY=            -22.2556  ZZZ=            -23.5887  XYY=              7.0110
  XXY=              0.2122  XXZ=             -3.0671  XZZ=             -6.6051  YZZ=             -6.2011
  YYZ=             -9.2136  XYZ=             -6.2771
 Hexadecapole moment (field-independent basis, Debye-Ang**3):
 XXXX=           -667.0466 YYYY=           -492.8999 ZZZZ=           -529.9180 XXXY=             29.3919
 XXXZ=             19.5736 YYYX=             44.4948 YYYZ=             19.7842 ZZZX=             21.6862
 ZZZY=             27.8669 XXYY=           -210.5085 XXZZ=           -159.0536 YYZZ=           -138.0257
 XXYZ=              3.0861 YYXZ=             10.5241 ZZXY=              4.3522
 N-N= 7.404769601873D+02 E-N=-2.910585896089D+03  KE= 6.052082401347D+02
 1\1\GINC-COMPUTE-8-9\SP\RmPW1PW91\6-31+G(d,p)\C6H10O5\MMARCARINO.IQUIR
 \12-Apr-2019\0\\# mpw1pw91/6-31+g** nmr scrf=(pcm,solvent=water)\\comm
 ent\\0,1\C,0,2.023719,0.513244,0.010755\C,0,0.752112,1.178624,-0.51458
 3\C,0,0.511982,-1.000077,-0.883327\C,0,-0.722626,-0.128681,1.124924\C,
 0,-0.708833,-1.223542,0.036848\C,0,-0.411894,1.257565,0.491856\O,0,0.3
 85675,0.23441,-1.548879\O,0,1.699203,-0.899514,-0.068764\O,0,-1.569227
 ,1.763428,-0.16782\O,0,0.156643,-0.459408,2.195953\O,0,-1.925309,-1.08
 8711,-0.698129\H,0,2.270375,0.764087,1.04444\H,0,2.880282,0.725439,-0.
 636371\H,0,0.919494,2.145894,-0.990617\H,0,0.640117,-1.790376,-1.62914
 8\H,0,-1.729589,-0.071527,1.549864\H,0,-0.641252,-2.209649,0.516326\H,
 0,-0.166542,1.962441,1.292701\H,0,-1.852535,1.056559,-0.778273\H,0,0.9
 40816,-0.871394,1.790066\H,0,-1.903816,-1.695906,-1.456703\\Version=EM
 64L-G09RevC.01\State=1-A\HF=-610.6478446\RMSD=7.334e-09\Dipole=0.98765
 97,-0.8303846,-0.8206417\Quadrupole=-0.3606302,3.4326621,-3.0720318,7.
 2057757,2.2007438,4.3377081\PG=C01 [X(C6H10O5)]\\@


 Where a calculator on the ENIAC is equipped with 18,000
 vacuum tubes and weighs 30 tons, computers inthe future
 may  have only 1,000 vacuum tubes and weigh only 1 1/2 tons.
              ---Popular Mechanics, March 1949
 Job cpu time:  0 days  0 hours 24 minutes 42.2 seconds.
 File lengths (MBytes):  RWF=     80 Int=      0 D2E=      0 Chk=      5 Scr=      1
 Normal termination of Gaussian 09 at Fri Apr 12 10:26:31 2019.
