 Entering Gaussian System, Link 0=g09
 Input=/home/mmarcarino.iquir/NMR/01_RSR_Levo07_OPTB_nmr.gjc
 Output=/home/mmarcarino.iquir/NMR/01_RSR_Levo07_OPTB_nmr.log
 Initial command:
 /share/apps/Gaussian09/EM64T.SSE4.2-enabled/g09/l1.exe /tmp/Gau-61855.inp -scrdir=/tmp/
 Entering Link 1 = /share/apps/Gaussian09/EM64T.SSE4.2-enabled/g09/l1.exe PID=     61856.
  
 Copyright (c) 1988,1990,1992,1993,1995,1998,2003,2009,2011,
            Gaussian, Inc.  All Rights Reserved.
  
 This is part of the Gaussian(R) 09 program.  It is based on
 the Gaussian(R) 03 system (copyright 2003, Gaussian, Inc.),
 the Gaussian(R) 98 system (copyright 1998, Gaussian, Inc.),
 the Gaussian(R) 94 system (copyright 1995, Gaussian, Inc.),
 the Gaussian 92(TM) system (copyright 1992, Gaussian, Inc.),
 the Gaussian 90(TM) system (copyright 1990, Gaussian, Inc.),
 the Gaussian 88(TM) system (copyright 1988, Gaussian, Inc.),
 the Gaussian 86(TM) system (copyright 1986, Carnegie Mellon
 University), and the Gaussian 82(TM) system (copyright 1983,
 Carnegie Mellon University). Gaussian is a federally registered
 trademark of Gaussian, Inc.
  
 This software contains proprietary and confidential information,
 including trade secrets, belonging to Gaussian, Inc.
  
 This software is provided under written license and may be
 used, copied, transmitted, or stored only in accord with that
 written license.
  
 The following legend is applicable only to US Government
 contracts under FAR:
  
                    RESTRICTED RIGHTS LEGEND
  
 Use, reproduction and disclosure by the US Government is
 subject to restrictions as set forth in subparagraphs (a)
 and (c) of the Commercial Computer Software - Restricted
 Rights clause in FAR 52.227-19.
  
 Gaussian, Inc.
 340 Quinnipiac St., Bldg. 40, Wallingford CT 06492
  
  
 ---------------------------------------------------------------
 Warning -- This program may not be used in any manner that
 competes with the business of Gaussian, Inc. or will provide
 assistance to any competitor of Gaussian, Inc.  The licensee
 of this program is prohibited from giving any competitor of
 Gaussian, Inc. access to this program.  By using this program,
 the user acknowledges that Gaussian, Inc. is engaged in the
 business of creating and licensing software in the field of
 computational chemistry and represents and warrants to the
 licensee that it is not a competitor of Gaussian, Inc. and that
 it will not use this program in any manner prohibited above.
 ---------------------------------------------------------------
  

 Cite this work as:
 Gaussian 09, Revision C.01,
 M. J. Frisch, G. W. Trucks, H. B. Schlegel, G. E. Scuseria, 
 M. A. Robb, J. R. Cheeseman, G. Scalmani, V. Barone, B. Mennucci, 
 G. A. Petersson, H. Nakatsuji, M. Caricato, X. Li, H. P. Hratchian, 
 A. F. Izmaylov, J. Bloino, G. Zheng, J. L. Sonnenberg, M. Hada, 
 M. Ehara, K. Toyota, R. Fukuda, J. Hasegawa, M. Ishida, T. Nakajima, 
 Y. Honda, O. Kitao, H. Nakai, T. Vreven, J. A. Montgomery, Jr., 
 J. E. Peralta, F. Ogliaro, M. Bearpark, J. J. Heyd, E. Brothers, 
 K. N. Kudin, V. N. Staroverov, T. Keith, R. Kobayashi, J. Normand, 
 K. Raghavachari, A. Rendell, J. C. Burant, S. S. Iyengar, J. Tomasi, 
 M. Cossi, N. Rega, J. M. Millam, M. Klene, J. E. Knox, J. B. Cross, 
 V. Bakken, C. Adamo, J. Jaramillo, R. Gomperts, R. E. Stratmann, 
 O. Yazyev, A. J. Austin, R. Cammi, C. Pomelli, J. W. Ochterski, 
 R. L. Martin, K. Morokuma, V. G. Zakrzewski, G. A. Voth, 
 P. Salvador, J. J. Dannenberg, S. Dapprich, A. D. Daniels, 
 O. Farkas, J. B. Foresman, J. V. Ortiz, J. Cioslowski, 
 and D. J. Fox, Gaussian, Inc., Wallingford CT, 2010.
 
 ******************************************
 Gaussian 09:  EM64L-G09RevC.01 23-Sep-2011
                12-Apr-2019 
 ******************************************
 %nprocshared=4
 Will use up to    4 processors via shared memory.
 ------------------------------------------------
 # mpw1pw91/6-31+g** nmr scrf=(pcm,solvent=water)
 ------------------------------------------------
 1/38=1/1;
 2/12=2,17=6,18=5,40=1/2;
 3/5=1,6=6,7=111,11=2,16=1,25=1,30=1,70=2201,72=1,74=-7/1,2,8,3;
 4//1;
 5/5=2,38=5,53=1/2;
 8/6=1,10=90,11=11/1;
 10/13=100,45=16/2;
 6/7=2,8=2,9=2,10=2,28=1/1;
 99/9=1/99;
 -------
 comment
 -------
 Charge =  0 Multiplicity = 1
 Symbolic Z-Matrix:
 6                     2.14202   0.51565   0.66178 
 6                     1.13464   0.99859  -0.38387 
 6                     0.91896  -1.20486  -0.26728 
 6                    -1.19586   0.10783  -0.06752 
 6                    -0.53858  -1.24056   0.25106 
 6                    -0.26544   1.29698   0.20957 
 8                     1.07388  -0.17456  -1.22791 
 8                     1.80397  -0.87621   0.80589 
 8                    -0.77708   2.47802  -0.39883 
 8                    -2.47171   0.26581   0.55333 
 8                    -1.22443  -2.30346  -0.4006 
 1                     2.05007   1.0128    1.6311 
 1                     3.1707    0.61426   0.29646 
 1                     1.48029   1.83754  -0.9888 
 1                     1.20441  -2.15902  -0.71767 
 1                    -1.40438   0.11133  -1.14082 
 1                    -0.51188  -1.40823   1.33827 
 1                    -0.18114   1.44742   1.29831 
 1                    -1.71022   2.53618  -0.12864 
 1                    -2.34308   0.24586   1.51764 
 1                    -2.16618  -2.19664  -0.18335 
 
                          Input orientation:                          
 ---------------------------------------------------------------------
 Center     Atomic      Atomic             Coordinates (Angstroms)
 Number     Number       Type             X           Y           Z
 ---------------------------------------------------------------------
      1          6           0        2.142015    0.515647    0.661784
      2          6           0        1.134637    0.998594   -0.383870
      3          6           0        0.918960   -1.204860   -0.267276
      4          6           0       -1.195860    0.107828   -0.067523
      5          6           0       -0.538576   -1.240560    0.251061
      6          6           0       -0.265441    1.296976    0.209571
      7          8           0        1.073880   -0.174558   -1.227908
      8          8           0        1.803965   -0.876211    0.805887
      9          8           0       -0.777077    2.478015   -0.398831
     10          8           0       -2.471713    0.265807    0.553333
     11          8           0       -1.224428   -2.303458   -0.400604
     12          1           0        2.050069    1.012796    1.631095
     13          1           0        3.170699    0.614259    0.296461
     14          1           0        1.480285    1.837540   -0.988801
     15          1           0        1.204410   -2.159023   -0.717667
     16          1           0       -1.404383    0.111329   -1.140823
     17          1           0       -0.511881   -1.408234    1.338269
     18          1           0       -0.181139    1.447418    1.298314
     19          1           0       -1.710219    2.536183   -0.128641
     20          1           0       -2.343079    0.245862    1.517641
     21          1           0       -2.166182   -2.196641   -0.183353
 ---------------------------------------------------------------------
                    Distance matrix (angstroms):
                    1          2          3          4          5
     1  C    0.000000
     2  C    1.530177   0.000000
     3  C    2.306330   2.217052   0.000000
     4  C    3.440874   2.514907   2.497101   0.000000
     5  C    3.230871   2.866459   1.547372   1.533515   0.000000
     6  C    2.571151   1.549652   2.808803   1.535101   2.552531
     7  O    2.277769   1.446505   1.417158   2.564752   2.433870
     8  O    1.439553   2.319141   1.429309   3.275687   2.434765
     9  O    3.673811   2.417346   4.056774   2.429595   3.782465
    10  O    4.621760   3.797511   3.785885   1.427663   2.469317
    11  O    4.517628   4.058203   2.412220   2.434350   1.422959
    12  H    1.093241   2.213211   3.130690   3.773636   3.699080
    13  H    1.096073   2.180851   2.949122   4.410872   4.147425
    14  H    2.215788   1.090525   3.176772   3.316988   3.884296
    15  H    3.152118   3.175978   1.093051   3.364907   2.195452
    16  H    3.998725   2.794072   2.809513   1.093374   2.124751
    17  H    3.346956   3.386681   2.160195   2.177733   1.100386
    18  H    2.582714   2.182304   3.270454   2.165565   2.906841
    19  H    4.421204   3.243845   4.574626   2.482984   3.972494
    20  H    4.573985   4.034459   3.991418   1.961609   2.658930
    21  H    5.160555   4.598384   3.241724   2.503102   1.936984
                    6          7          8          9         10
     6  C    0.000000
     7  O    2.454697   0.000000
     8  O    3.059538   2.271929   0.000000
     9  O    1.423649   3.339095   4.400449   0.000000
    10  O    2.459495   3.992239   4.432766   2.944872   0.000000
    11  O    3.775592   3.240195   3.558626   4.802355   3.011119
    12  H    2.731863   3.246021   2.076026   3.776271   4.708086
    13  H    3.504384   2.709720   2.085420   4.420628   5.658994
    14  H    2.185375   2.066610   3.269575   2.419495   4.524026
    15  H    3.868354   2.053165   2.079973   5.052729   4.583571
    16  H    2.127560   2.496218   3.880517   2.558372   2.008288
    17  H    2.941573   3.259119   2.435081   4.265065   2.694342
    18  H    1.102316   3.253871   3.095541   2.073059   2.682896
    19  H    1.933237   4.038281   4.986709   0.973211   2.489893
    20  H    2.670668   4.403453   4.354723   3.332827   0.973054
    21  H    3.996569   3.959535   4.299325   4.881440   2.588379
                   11         12         13         14         15
    11  O    0.000000
    12  H    5.084061   0.000000
    13  H    5.321289   1.787706   0.000000
    14  H    4.980895   2.805122   2.450676   0.000000
    15  H    2.453700   4.036367   3.547653   4.015238   0.000000
    16  H    2.532095   4.519891   4.821836   3.365149   3.484158
    17  H    2.081545   3.537050   4.328653   4.463074   2.781405
    18  H    4.247805   2.297374   3.596204   2.853668   4.357791
    19  H    4.871558   4.422346   5.262876   3.377468   5.557605
    20  H    3.380840   4.461032   5.659394   4.840847   4.833710
    21  H    0.972373   5.600846   6.050924   5.497280   3.412887
                   16         17         18         19         20
    16  H    0.000000
    17  H    3.041633   0.000000
    18  H    3.038231   2.875019   0.000000
    19  H    2.645367   4.375644   2.357901   0.000000
    20  H    2.822531   2.474165   2.483108   2.890731   0.000000
    21  H    2.612243   2.381938   4.406234   4.755052   2.981693
                   21
    21  H    0.000000
 Stoichiometry    C6H10O5
 Framework group  C1[X(C6H10O5)]
 Deg. of freedom    57
 Full point group                 C1      NOp   1
 Largest Abelian subgroup         C1      NOp   1
 Largest concise Abelian subgroup C1      NOp   1
                         Standard orientation:                         
 ---------------------------------------------------------------------
 Center     Atomic      Atomic             Coordinates (Angstroms)
 Number     Number       Type             X           Y           Z
 ---------------------------------------------------------------------
      1          6           0        2.142015    0.515645    0.661784
      2          6           0        1.134638    0.998593   -0.383870
      3          6           0        0.918959   -1.204861   -0.267276
      4          6           0       -1.195860    0.107829   -0.067523
      5          6           0       -0.538577   -1.240560    0.251061
      6          6           0       -0.265440    1.296976    0.209571
      7          8           0        1.073880   -0.174559   -1.227908
      8          8           0        1.803964   -0.876212    0.805887
      9          8           0       -0.777075    2.478016   -0.398831
     10          8           0       -2.471713    0.265809    0.553333
     11          8           0       -1.224430   -2.303457   -0.400604
     12          1           0        2.050070    1.012794    1.631095
     13          1           0        3.170699    0.614257    0.296461
     14          1           0        1.480286    1.837539   -0.988801
     15          1           0        1.204408   -2.159024   -0.717667
     16          1           0       -1.404383    0.111330   -1.140823
     17          1           0       -0.511882   -1.408234    1.338269
     18          1           0       -0.181138    1.447418    1.298314
     19          1           0       -1.710217    2.536184   -0.128641
     20          1           0       -2.343079    0.245864    1.517641
     21          1           0       -2.166184   -2.196639   -0.183353
 ---------------------------------------------------------------------
 Rotational constants (GHZ):      1.4112453      1.2538987      0.8010404
 Standard basis: 6-31+G(d,p) (6D, 7F)
 There are   259 symmetry adapted basis functions of A   symmetry.
 Integral buffers will be    131072 words long.
 Raffenetti 2 integral format.
 Two-electron integral symmetry is turned on.
   259 basis functions,   422 primitive gaussians,   259 cartesian basis functions
    43 alpha electrons       43 beta electrons
       nuclear repulsion energy       717.2302322935 Hartrees.
 NAtoms=   21 NActive=   21 NUniq=   21 SFac= 1.00D+00 NAtFMM=   60 NAOKFM=F Big=F
 ------------------------------------------------------------------------------
 Polarizable Continuum Model (PCM)
 =================================
 Model                : PCM.
 Atomic radii         : UFF (Universal Force Field).
 Polarization charges : Total charges.
 Charge compensation  : None.
 Solution method      : Matrix inversion.
 Cavity type          : Scaled VdW (van der Waals Surface) (Alpha=1.100).
 Cavity algorithm     : GePol (No added spheres)
                        Default sphere list used, NSphG=   21.
                        Lebedev-Laikov grids with approx.  5.0 points / Ang**2.
                        Smoothing algorithm: Karplus/York (Gamma=1.0000).
                        Polarization charges: spherical gaussians, with
                                              point-specific exponents (IZeta= 3).
                        Self-potential: point-specific (ISelfS= 7).
                        Self-field    : sphere-specific E.n sum rule (ISelfD= 2).
 Solvent              : Water, Eps=  78.355300 Eps(inf)=   1.777849
 ------------------------------------------------------------------------------
 One-electron integrals computed using PRISM.
 NBasis=   259 RedAO= T  NBF=   259
 NBsUse=   259 1.00D-06 NBFU=   259
 Harris functional with IExCor=  908 diagonalized for initial guess.
 ExpMin= 4.38D-02 ExpMax= 5.48D+03 ExpMxC= 8.25D+02 IAcc=2 IRadAn=         4 AccDes= 0.00D+00
 HarFok:  IExCor=  908 AccDes= 0.00D+00 IRadAn=         4 IDoV= 1
 ScaDFX=  1.000000  1.000000  1.000000  1.000000
 FoFCou: FMM=F IPFlag=           0 FMFlag=      100000 FMFlg1=           0
         NFxFlg=           0 DoJE=T BraDBF=F KetDBF=T FulRan=T
         Omega=  0.000000  0.000000  1.000000  0.000000  0.000000 ICntrl=     500 IOpCl=  0
         NMat0=    1 NMatS0=    1 NMatT0=    0 NMatD0=    1 NMtDS0=    0 NMtDT0=    0
         I1Cent=           4 NGrid=           0.
 Petite list used in FoFCou.
 Initial guess orbital symmetries:
       Occupied  (A) (A) (A) (A) (A) (A) (A) (A) (A) (A) (A) (A)
                 (A) (A) (A) (A) (A) (A) (A) (A) (A) (A) (A) (A)
                 (A) (A) (A) (A) (A) (A) (A) (A) (A) (A) (A) (A)
                 (A) (A) (A) (A) (A) (A) (A)
       Virtual   (A) (A) (A) (A) (A) (A) (A) (A) (A) (A) (A) (A)
                 (A) (A) (A) (A) (A) (A) (A) (A) (A) (A) (A) (A)
                 (A) (A) (A) (A) (A) (A) (A) (A) (A) (A) (A) (A)
                 (A) (A) (A) (A) (A) (A) (A) (A) (A) (A) (A) (A)
                 (A) (A) (A) (A) (A) (A) (A) (A) (A) (A) (A) (A)
                 (A) (A) (A) (A) (A) (A) (A) (A) (A) (A) (A) (A)
                 (A) (A) (A) (A) (A) (A) (A) (A) (A) (A) (A) (A)
                 (A) (A) (A) (A) (A) (A) (A) (A) (A) (A) (A) (A)
                 (A) (A) (A) (A) (A) (A) (A) (A) (A) (A) (A) (A)
                 (A) (A) (A) (A) (A) (A) (A) (A) (A) (A) (A) (A)
                 (A) (A) (A) (A) (A) (A) (A) (A) (A) (A) (A) (A)
                 (A) (A) (A) (A) (A) (A) (A) (A) (A) (A) (A) (A)
                 (A) (A) (A) (A) (A) (A) (A) (A) (A) (A) (A) (A)
                 (A) (A) (A) (A) (A) (A) (A) (A) (A) (A) (A) (A)
                 (A) (A) (A) (A) (A) (A) (A) (A) (A) (A) (A) (A)
                 (A) (A) (A) (A) (A) (A) (A) (A) (A) (A) (A) (A)
                 (A) (A) (A) (A) (A) (A) (A) (A) (A) (A) (A) (A)
                 (A) (A) (A) (A) (A) (A) (A) (A) (A) (A) (A) (A)
 The electronic state of the initial guess is 1-A.
 Requested convergence on RMS density matrix=1.00D-08 within 128 cycles.
 Requested convergence on MAX density matrix=1.00D-06.
 Requested convergence on             energy=1.00D-06.
 No special actions if energy rises.
 Error on total polarization charges =  0.01196
 SCF Done:  E(RmPW1PW91) =  -610.644590138     A.U. after   12 cycles
             Convg  =    0.4712D-08             -V/T =  2.0090
 Range of M.O.s used for correlation:     1   259
 NBasis=   259 NAE=    43 NBE=    43 NFC=     0 NFV=     0
 NROrb=    259 NOA=    43 NOB=    43 NVA=   216 NVB=   216

 **** Warning!!: The largest alpha MO coefficient is  0.57610423D+02

 NEqPCM:  Using equilibrium solvation (IEInf=0, Eps=  78.3553, EpsInf=   1.7778)
          Differentiating once with respect to magnetic field using GIAOs.
          Electric field/nuclear overlap derivatives assumed to be zero.
 FoFCou: FMM=F IPFlag=           0 FMFlag=    10101102 FMFlg1=           0
         NFxFlg=    40000000 DoJE=F BraDBF=F KetDBF=T FulRan=T
         Omega=  0.000000  0.000000  1.000000  0.000000  0.000000 ICntrl=    6100 IOpCl=  0
         NMat0=    1 NMatS0=    1 NMatT0=    0 NMatD0=    1 NMtDS0=    0 NMtDT0=    0
         I1Cent=           7 NGrid=        1543.
 Symmetry not used in FoFCou.
          There are     3 degrees of freedom in the 1st order CPHF.  IDoFFX=0.
      3 vectors produced by pass  0 Test12= 3.10D-13 3.33D-08 XBig12= 2.58D+01 1.10D+00.
 AX will form     3 AO Fock derivatives at one time.
      3 vectors produced by pass  1 Test12= 3.10D-13 3.33D-08 XBig12= 6.99D-02 5.36D-02.
      3 vectors produced by pass  2 Test12= 3.10D-13 3.33D-08 XBig12= 1.97D-04 2.19D-03.
      3 vectors produced by pass  3 Test12= 3.10D-13 3.33D-08 XBig12= 9.52D-07 1.72D-04.
      3 vectors produced by pass  4 Test12= 3.10D-13 3.33D-08 XBig12= 2.56D-09 9.95D-06.
      3 vectors produced by pass  5 Test12= 3.10D-13 3.33D-08 XBig12= 8.05D-12 4.17D-07.
 Inverted reduced A of dimension    18 with in-core refinement.
 Calculating GIAO nuclear magnetic shielding tensors.
 SCF GIAO Magnetic shielding tensor (ppm):
      1  C    Isotropic =   126.4553   Anisotropy =    44.8676
   XX=   112.9510   YX=    11.2881   ZX=     9.7334
   XY=    -2.0660   YY=   155.0600   ZY=   -11.7409
   XZ=     4.8177   YZ=    -1.7696   ZZ=   111.3549
   Eigenvalues:   103.5555   119.4433   156.3670
      2  C    Isotropic =   115.9560   Anisotropy =    43.0790
   XX=   106.3697   YX=    -6.9731   ZX=     6.9852
   XY=    -1.8586   YY=   134.0670   ZY=    18.2336
   XZ=     0.4205   YZ=    21.2219   ZZ=   107.4314
   Eigenvalues:    94.5196   108.6732   144.6754
      3  C    Isotropic =    91.3442   Anisotropy =    24.2902
   XX=    92.3019   YX=    11.2428   ZX=    16.7942
   XY=     8.7279   YY=    87.3026   ZY=    -1.8721
   XZ=    11.4202   YZ=   -15.0087   ZZ=    94.4280
   Eigenvalues:    69.5847    96.9102   107.5376
      4  C    Isotropic =   116.0708   Anisotropy =    18.5510
   XX=   118.7353   YX=    -0.6150   ZX=   -11.8113
   XY=    -1.6366   YY=   118.3564   ZY=     2.8139
   XZ=   -13.1220   YZ=     1.4856   ZZ=   111.1207
   Eigenvalues:   101.8245   117.9499   128.4381
      5  C    Isotropic =   116.9767   Anisotropy =    26.1350
   XX=   123.9768   YX=    18.2653   ZX=     9.5858
   XY=     0.9313   YY=   111.4703   ZY=     3.2365
   XZ=     4.4101   YZ=    12.1849   ZZ=   115.4829
   Eigenvalues:   104.5704   111.9596   134.4000
      6  C    Isotropic =   118.3258   Anisotropy =    24.8566
   XX=   122.2783   YX=   -18.2236   ZX=     8.6020
   XY=    -2.1370   YY=   118.8425   ZY=    -8.5574
   XZ=     0.6958   YZ=    -8.5627   ZZ=   113.8566
   Eigenvalues:   106.7990   113.2815   134.8968
      7  O    Isotropic =   245.6364   Anisotropy =    49.0512
   XX=   225.2630   YX=    28.9261   ZX=    16.8017
   XY=    20.2108   YY=   248.4256   ZY=   -17.4658
   XZ=    39.8177   YZ=    -9.8411   ZZ=   263.2207
   Eigenvalues:   195.2936   263.2785   278.3372
      8  O    Isotropic =   259.0707   Anisotropy =   128.8290
   XX=   239.1119   YX=    40.7865   ZX=    64.1599
   XY=    28.5015   YY=   241.1964   ZY=   -30.5198
   XZ=    68.6815   YZ=   -61.4944   ZZ=   296.9040
   Eigenvalues:   158.9362   273.3193   344.9567
      9  O    Isotropic =   293.8066   Anisotropy =    53.8954
   XX=   323.4736   YX=   -22.0879   ZX=     2.6956
   XY=   -11.3107   YY=   274.8354   ZY=    -1.9465
   XZ=     2.7804   YZ=   -26.8785   ZZ=   283.1110
   Eigenvalues:   261.5914   290.0916   329.7369
     10  O    Isotropic =   306.1323   Anisotropy =   108.4177
   XX=   281.1129   YX=    -3.7855   ZX=    10.3438
   XY=    -3.5424   YY=   259.2526   ZY=     0.4263
   XZ=   -22.2637   YZ=     1.7430   ZZ=   378.0313
   Eigenvalues:   258.6548   281.3313   378.4107
     11  O    Isotropic =   297.0032   Anisotropy =    47.8924
   XX=   325.6952   YX=     8.4312   ZX=     9.8898
   XY=    -5.8335   YY=   282.1399   ZY=     2.4402
   XZ=    12.9594   YZ=    20.0817   ZZ=   283.1747
   Eigenvalues:   270.4492   291.6290   328.9315
     12  H    Isotropic =    27.7276   Anisotropy =     7.5747
   XX=    26.1593   YX=     1.2759   ZX=     1.6470
   XY=     1.3964   YY=    28.3123   ZY=     4.0269
   XZ=     2.5899   YZ=     2.6580   ZZ=    28.7112
   Eigenvalues:    24.7507    25.6547    32.7774
     13  H    Isotropic =    27.8422   Anisotropy =    10.9603
   XX=    33.7285   YX=     3.3076   ZX=     0.0969
   XY=     3.3538   YY=    26.8529   ZY=    -1.1925
   XZ=    -1.1969   YZ=    -1.0606   ZZ=    22.9452
   Eigenvalues:    22.6310    25.7465    35.1491
     14  H    Isotropic =    27.0713   Anisotropy =     6.7299
   XX=    26.5663   YX=     2.1520   ZX=    -2.2009
   XY=     0.9662   YY=    30.0315   ZY=    -2.5308
   XZ=    -1.3473   YZ=    -1.4835   ZZ=    24.6161
   Eigenvalues:    23.4023    26.2536    31.5579
     15  H    Isotropic =    26.1888   Anisotropy =     6.5475
   XX=    25.3096   YX=    -1.5673   ZX=    -0.0929
   XY=    -1.0586   YY=    29.5681   ZY=     1.9316
   XZ=    -0.0626   YZ=     2.2766   ZZ=    23.6888
   Eigenvalues:    22.9629    25.0497    30.5538
     16  H    Isotropic =    28.2988   Anisotropy =     3.2761
   XX=    29.5477   YX=    -0.4623   ZX=    -1.7146
   XY=    -0.0021   YY=    26.1477   ZY=     0.4792
   XZ=    -0.3925   YZ=     0.2715   ZZ=    29.2011
   Eigenvalues:    26.0987    28.3149    30.4829
     17  H    Isotropic =    28.2540   Anisotropy =     3.2196
   XX=    27.5131   YX=     1.7009   ZX=     1.5776
   XY=     3.2538   YY=    27.5401   ZY=    -0.3356
   XZ=     1.1116   YZ=    -1.5337   ZZ=    29.7089
   Eigenvalues:    24.5443    29.8173    30.4004
     18  H    Isotropic =    28.1190   Anisotropy =     4.0336
   XX=    26.6883   YX=    -1.6529   ZX=     1.9479
   XY=    -3.2633   YY=    27.6054   ZY=    -0.2932
   XZ=     1.2459   YZ=     1.2637   ZZ=    30.0632
   Eigenvalues:    24.2348    29.3141    30.8081
     19  H    Isotropic =    29.0621   Anisotropy =    18.0086
   XX=    38.8125   YX=    -3.8800   ZX=    -5.1453
   XY=    -4.7754   YY=    27.9903   ZY=    -2.5220
   XZ=    -4.2268   YZ=    -1.0033   ZZ=    20.3835
   Eigenvalues:    18.4268    27.6917    41.0679
     20  H    Isotropic =    31.0349   Anisotropy =    18.3777
   XX=    27.5388   YX=    -0.6074   ZX=    -2.5932
   XY=    -0.5044   YY=    22.7226   ZY=     0.1713
   XZ=    -2.6784   YZ=     0.0806   ZZ=    42.8432
   Eigenvalues:    22.6577    27.1602    43.2867
     21  H    Isotropic =    29.2803   Anisotropy =    17.8296
   XX=    40.5460   YX=     1.8769   ZX=    -3.4250
   XY=     2.2044   YY=    26.9157   ZY=     3.3222
   XZ=    -2.4816   YZ=     1.8380   ZZ=    20.3793
   Eigenvalues:    18.9275    27.7468    41.1667
 End of Minotr Frequency-dependent properties file   721 does not exist.
 End of Minotr Frequency-dependent properties file   722 does not exist.

 **********************************************************************

            Population analysis using the SCF density.

 **********************************************************************

 Orbital symmetries:
       Occupied  (A) (A) (A) (A) (A) (A) (A) (A) (A) (A) (A) (A)
                 (A) (A) (A) (A) (A) (A) (A) (A) (A) (A) (A) (A)
                 (A) (A) (A) (A) (A) (A) (A) (A) (A) (A) (A) (A)
                 (A) (A) (A) (A) (A) (A) (A)
       Virtual   (A) (A) (A) (A) (A) (A) (A) (A) (A) (A) (A) (A)
                 (A) (A) (A) (A) (A) (A) (A) (A) (A) (A) (A) (A)
                 (A) (A) (A) (A) (A) (A) (A) (A) (A) (A) (A) (A)
                 (A) (A) (A) (A) (A) (A) (A) (A) (A) (A) (A) (A)
                 (A) (A) (A) (A) (A) (A) (A) (A) (A) (A) (A) (A)
                 (A) (A) (A) (A) (A) (A) (A) (A) (A) (A) (A) (A)
                 (A) (A) (A) (A) (A) (A) (A) (A) (A) (A) (A) (A)
                 (A) (A) (A) (A) (A) (A) (A) (A) (A) (A) (A) (A)
                 (A) (A) (A) (A) (A) (A) (A) (A) (A) (A) (A) (A)
                 (A) (A) (A) (A) (A) (A) (A) (A) (A) (A) (A) (A)
                 (A) (A) (A) (A) (A) (A) (A) (A) (A) (A) (A) (A)
                 (A) (A) (A) (A) (A) (A) (A) (A) (A) (A) (A) (A)
                 (A) (A) (A) (A) (A) (A) (A) (A) (A) (A) (A) (A)
                 (A) (A) (A) (A) (A) (A) (A) (A) (A) (A) (A) (A)
                 (A) (A) (A) (A) (A) (A) (A) (A) (A) (A) (A) (A)
                 (A) (A) (A) (A) (A) (A) (A) (A) (A) (A) (A) (A)
                 (A) (A) (A) (A) (A) (A) (A) (A) (A) (A) (A) (A)
                 (A) (A) (A) (A) (A) (A) (A) (A) (A) (A) (A) (A)
 The electronic state is 1-A.
 Alpha  occ. eigenvalues --  -19.27936 -19.27349 -19.26999 -19.26542 -19.26457
 Alpha  occ. eigenvalues --  -10.36203 -10.32142 -10.31821 -10.31439 -10.31391
 Alpha  occ. eigenvalues --  -10.30771  -1.14468  -1.08808  -1.07124  -1.05918
 Alpha  occ. eigenvalues --   -1.04148  -0.82414  -0.81392  -0.70261  -0.69284
 Alpha  occ. eigenvalues --   -0.64674  -0.61084  -0.58251  -0.54961  -0.54438
 Alpha  occ. eigenvalues --   -0.52864  -0.51365  -0.50391  -0.46518  -0.45531
 Alpha  occ. eigenvalues --   -0.44622  -0.43821  -0.42925  -0.41014  -0.38223
 Alpha  occ. eigenvalues --   -0.37570  -0.37080  -0.36867  -0.33644  -0.32252
 Alpha  occ. eigenvalues --   -0.30487  -0.29555  -0.28024
 Alpha virt. eigenvalues --    0.00668   0.01357   0.02236   0.02556   0.03747
 Alpha virt. eigenvalues --    0.04307   0.04597   0.05509   0.05675   0.07638
 Alpha virt. eigenvalues --    0.08373   0.09090   0.09816   0.10063   0.11339
 Alpha virt. eigenvalues --    0.11727   0.12549   0.12872   0.13818   0.14498
 Alpha virt. eigenvalues --    0.14861   0.14933   0.15721   0.16251   0.16452
 Alpha virt. eigenvalues --    0.18060   0.18275   0.18898   0.20012   0.20878
 Alpha virt. eigenvalues --    0.21931   0.22694   0.22812   0.23888   0.24539
 Alpha virt. eigenvalues --    0.24784   0.25456   0.25654   0.26785   0.26890
 Alpha virt. eigenvalues --    0.27847   0.28397   0.28538   0.29874   0.30683
 Alpha virt. eigenvalues --    0.31543   0.31775   0.32606   0.33257   0.33758
 Alpha virt. eigenvalues --    0.34054   0.35057   0.35886   0.36126   0.36627
 Alpha virt. eigenvalues --    0.37422   0.37752   0.39060   0.39563   0.40789
 Alpha virt. eigenvalues --    0.41447   0.42524   0.43222   0.43872   0.45281
 Alpha virt. eigenvalues --    0.46752   0.63987   0.67937   0.69206   0.70514
 Alpha virt. eigenvalues --    0.72674   0.74310   0.75153   0.76103   0.78459
 Alpha virt. eigenvalues --    0.79444   0.81103   0.81824   0.84546   0.85336
 Alpha virt. eigenvalues --    0.87114   0.89976   0.94152   0.95388   0.97291
 Alpha virt. eigenvalues --    0.99286   1.02089   1.04207   1.05498   1.05649
 Alpha virt. eigenvalues --    1.06218   1.07639   1.09952   1.11757   1.13941
 Alpha virt. eigenvalues --    1.18900   1.22333   1.23713   1.26039   1.27669
 Alpha virt. eigenvalues --    1.28198   1.28877   1.30900   1.32825   1.33396
 Alpha virt. eigenvalues --    1.36786   1.37477   1.38153   1.39677   1.41218
 Alpha virt. eigenvalues --    1.43026   1.44964   1.46592   1.47650   1.48993
 Alpha virt. eigenvalues --    1.52083   1.53926   1.56027   1.58017   1.59068
 Alpha virt. eigenvalues --    1.59899   1.62396   1.65345   1.67751   1.68432
 Alpha virt. eigenvalues --    1.72585   1.73397   1.76318   1.77390   1.79556
 Alpha virt. eigenvalues --    1.80974   1.82246   1.83374   1.86817   1.87389
 Alpha virt. eigenvalues --    1.88838   1.93792   1.95010   1.97345   1.98667
 Alpha virt. eigenvalues --    1.99383   2.00678   2.03201   2.04286   2.08170
 Alpha virt. eigenvalues --    2.09411   2.11338   2.11998   2.13442   2.17337
 Alpha virt. eigenvalues --    2.19417   2.20963   2.25322   2.30439   2.31194
 Alpha virt. eigenvalues --    2.32689   2.35695   2.39560   2.40242   2.42117
 Alpha virt. eigenvalues --    2.44201   2.45684   2.49163   2.50962   2.53355
 Alpha virt. eigenvalues --    2.55261   2.57476   2.59717   2.62353   2.63915
 Alpha virt. eigenvalues --    2.64456   2.65294   2.67500   2.68123   2.70490
 Alpha virt. eigenvalues --    2.72753   2.74678   2.77803   2.78651   2.80219
 Alpha virt. eigenvalues --    2.81883   2.85527   2.87350   2.89404   2.92324
 Alpha virt. eigenvalues --    2.94466   2.97304   2.98568   3.01038   3.02791
 Alpha virt. eigenvalues --    3.06941   3.07603   3.10142   3.21572   3.28820
 Alpha virt. eigenvalues --    3.34153   3.35845   3.41522   3.45588   3.49250
 Alpha virt. eigenvalues --    3.52128   3.52330   3.55620   3.56157   3.61091
 Alpha virt. eigenvalues --    4.29422   4.37072   4.40454   4.42630   4.48831
 Alpha virt. eigenvalues --    4.58375   4.67058   4.74609   4.78307   4.94455
 Alpha virt. eigenvalues --    5.03117
          Condensed to atoms (all electrons):
              1          2          3          4          5          6
     1  C    5.507238  -0.102385  -0.318322   0.200367   0.089317  -0.218185
     2  C   -0.102385   6.541518  -0.264884  -0.254367  -0.013028  -0.181886
     3  C   -0.318322  -0.264884   6.500690  -0.264539  -0.448513   0.015577
     4  C    0.200367  -0.254367  -0.264539   6.436089  -0.181248  -0.291834
     5  C    0.089317  -0.013028  -0.448513  -0.181248   6.356846  -0.204535
     6  C   -0.218185  -0.181886   0.015577  -0.291834  -0.204535   6.479652
     7  O   -0.037758   0.132765   0.328174   0.007752  -0.136202  -0.160221
     8  O    0.186685  -0.145187   0.304084   0.007549  -0.147595   0.074370
     9  O    0.029428  -0.141424  -0.005514  -0.077827   0.026820   0.270238
    10  O   -0.009914   0.040659   0.037259   0.122517  -0.021355  -0.049026
    11  O    0.006576  -0.002340  -0.159115  -0.094366   0.309426   0.032960
    12  H    0.465477  -0.123320   0.014324   0.001956   0.010582  -0.004009
    13  H    0.373130  -0.009383  -0.013278  -0.001190   0.003774   0.023816
    14  H    0.018759   0.299209   0.000259   0.018772   0.005015   0.004119
    15  H    0.004929   0.013056   0.348561   0.019828  -0.021179   0.015974
    16  H    0.009769  -0.013278   0.000658   0.510562  -0.075183  -0.088882
    17  H    0.018093  -0.005511  -0.085112   0.004477   0.401894  -0.015085
    18  H    0.036196  -0.145459   0.004468   0.005935   0.009790   0.391365
    19  H   -0.006574   0.024011  -0.000052  -0.059122   0.018513   0.019162
    20  H    0.001216   0.004105   0.008484   0.092646  -0.053869  -0.057141
    21  H   -0.001396  -0.000381   0.027528  -0.039405  -0.006723   0.014038
              7          8          9         10         11         12
     1  C   -0.037758   0.186685   0.029428  -0.009914   0.006576   0.465477
     2  C    0.132765  -0.145187  -0.141424   0.040659  -0.002340  -0.123320
     3  C    0.328174   0.304084  -0.005514   0.037259  -0.159115   0.014324
     4  C    0.007752   0.007549  -0.077827   0.122517  -0.094366   0.001956
     5  C   -0.136202  -0.147595   0.026820  -0.021355   0.309426   0.010582
     6  C   -0.160221   0.074370   0.270238  -0.049026   0.032960  -0.004009
     7  O    8.313118  -0.071256   0.016447  -0.001175   0.016076   0.012018
     8  O   -0.071256   8.311090  -0.001615  -0.004467   0.005486  -0.050601
     9  O    0.016447  -0.001615   8.255890  -0.013808  -0.001588   0.000732
    10  O   -0.001175  -0.004467  -0.013808   8.282565  -0.012641   0.000245
    11  O    0.016076   0.005486  -0.001588  -0.012641   8.244252  -0.000018
    12  H    0.012018  -0.050601   0.000732   0.000245  -0.000018   0.525992
    13  H   -0.006716  -0.046383  -0.000334  -0.000039   0.000035  -0.037190
    14  H   -0.032978   0.008355  -0.002918  -0.000620   0.000019   0.001853
    15  H   -0.049982  -0.040201  -0.000018  -0.000851   0.000304  -0.000248
    16  H    0.007552  -0.001115  -0.003493  -0.065451  -0.004663   0.000002
    17  H    0.011483  -0.009918  -0.000292  -0.009332  -0.044747  -0.000029
    18  H    0.011208  -0.002591  -0.046168  -0.010936  -0.000490   0.002268
    19  H   -0.001346   0.000099   0.237399   0.018111   0.000039  -0.000009
    20  H    0.000476  -0.000377  -0.001254   0.248415  -0.001657  -0.000006
    21  H   -0.001234  -0.000119   0.000046   0.015635   0.241267   0.000000
             13         14         15         16         17         18
     1  C    0.373130   0.018759   0.004929   0.009769   0.018093   0.036196
     2  C   -0.009383   0.299209   0.013056  -0.013278  -0.005511  -0.145459
     3  C   -0.013278   0.000259   0.348561   0.000658  -0.085112   0.004468
     4  C   -0.001190   0.018772   0.019828   0.510562   0.004477   0.005935
     5  C    0.003774   0.005015  -0.021179  -0.075183   0.401894   0.009790
     6  C    0.023816   0.004119   0.015974  -0.088882  -0.015085   0.391365
     7  O   -0.006716  -0.032978  -0.049982   0.007552   0.011483   0.011208
     8  O   -0.046383   0.008355  -0.040201  -0.001115  -0.009918  -0.002591
     9  O   -0.000334  -0.002918  -0.000018  -0.003493  -0.000292  -0.046168
    10  O   -0.000039  -0.000620  -0.000851  -0.065451  -0.009332  -0.010936
    11  O    0.000035   0.000019   0.000304  -0.004663  -0.044747  -0.000490
    12  H   -0.037190   0.001853  -0.000248   0.000002  -0.000029   0.002268
    13  H    0.537807  -0.002758   0.000560   0.000001  -0.000040   0.000189
    14  H   -0.002758   0.480178   0.000004   0.000074   0.000011   0.001915
    15  H    0.000560   0.000004   0.520053  -0.000161  -0.000104   0.000001
    16  H    0.000001   0.000074  -0.000161   0.500511   0.003789   0.004168
    17  H   -0.000040   0.000011  -0.000104   0.003789   0.544130   0.001944
    18  H    0.000189   0.001915   0.000001   0.004168   0.001944   0.562802
    19  H    0.000004   0.000185   0.000000  -0.000864  -0.000016  -0.004071
    20  H    0.000000  -0.000001  -0.000003   0.006395   0.003729   0.003865
    21  H    0.000000  -0.000001  -0.000039  -0.000859  -0.003818  -0.000006
             19         20         21
     1  C   -0.006574   0.001216  -0.001396
     2  C    0.024011   0.004105  -0.000381
     3  C   -0.000052   0.008484   0.027528
     4  C   -0.059122   0.092646  -0.039405
     5  C    0.018513  -0.053869  -0.006723
     6  C    0.019162  -0.057141   0.014038
     7  O   -0.001346   0.000476  -0.001234
     8  O    0.000099  -0.000377  -0.000119
     9  O    0.237399  -0.001254   0.000046
    10  O    0.018111   0.248415   0.015635
    11  O    0.000039  -0.001657   0.241267
    12  H   -0.000009  -0.000006   0.000000
    13  H    0.000004   0.000000   0.000000
    14  H    0.000185  -0.000001  -0.000001
    15  H    0.000000  -0.000003  -0.000039
    16  H   -0.000864   0.006395  -0.000859
    17  H   -0.000016   0.003729  -0.003818
    18  H   -0.004071   0.003865  -0.000006
    19  H    0.372512  -0.000538  -0.000005
    20  H   -0.000538   0.360066  -0.000343
    21  H   -0.000005  -0.000343   0.371433
 Mulliken atomic charges:
              1
     1  C   -0.252648
     2  C    0.347509
     3  C   -0.030737
     4  C   -0.164554
     5  C    0.077451
     6  C   -0.070466
     7  O   -0.358203
     8  O   -0.376294
     9  O   -0.540749
    10  O   -0.565792
    11  O   -0.534818
    12  H    0.179983
    13  H    0.177995
    14  H    0.200547
    15  H    0.189515
    16  H    0.210468
    17  H    0.184452
    18  H    0.173606
    19  H    0.382561
    20  H    0.385790
    21  H    0.384383
 Sum of Mulliken atomic charges =   0.00000
 Mulliken charges with hydrogens summed into heavy atoms:
              1
     1  C    0.105329
     2  C    0.548056
     3  C    0.158778
     4  C    0.045914
     5  C    0.261904
     6  C    0.103141
     7  O   -0.358203
     8  O   -0.376294
     9  O   -0.158188
    10  O   -0.180003
    11  O   -0.150435
 Sum of Mulliken charges with hydrogens summed into heavy atoms =   0.00000
 Electronic spatial extent (au):  <R**2>=           1513.1495
 Charge=              0.0000 electrons
 Dipole moment (field-independent basis, Debye):
    X=             -0.8428    Y=              1.7764    Z=              3.9767  Tot=              4.4362
 Quadrupole moment (field-independent basis, Debye-Ang):
   XX=            -61.6027   YY=            -71.2429   ZZ=            -64.6898
   XY=              3.9400   XZ=             -4.3753   YZ=              2.5645
 Traceless Quadrupole moment (field-independent basis, Debye-Ang):
   XX=              4.2425   YY=             -5.3978   ZZ=              1.1554
   XY=              3.9400   XZ=             -4.3753   YZ=              2.5645
 Octapole moment (field-independent basis, Debye-Ang**2):
  XXX=             -2.9667  YYY=             -1.3832  ZZZ=             14.3940  XYY=             -4.6946
  XXY=              8.4494  XXZ=              4.4599  XZZ=            -13.9910  YZZ=              4.7966
  YYZ=              7.5327  XYZ=              4.3025
 Hexadecapole moment (field-independent basis, Debye-Ang**3):
 XXXX=           -867.8158 YYYY=           -847.2926 ZZZZ=           -220.3244 XXXY=             39.0879
 XXXZ=            -14.9945 YYYX=            -24.5178 YYYZ=              6.5242 ZZZX=            -16.3147
 ZZZY=              4.1353 XXYY=           -223.6594 XXZZ=           -167.8743 YYZZ=           -168.8732
 XXYZ=              8.6705 YYXZ=            -19.0964 ZZXY=              4.4485
 N-N= 7.172302322935D+02 E-N=-2.864127435993D+03  KE= 6.052112337653D+02
 1\1\GINC-COMPUTE-8-9\SP\RmPW1PW91\6-31+G(d,p)\C6H10O5\MMARCARINO.IQUIR
 \12-Apr-2019\0\\# mpw1pw91/6-31+g** nmr scrf=(pcm,solvent=water)\\comm
 ent\\0,1\C,0,2.142015,0.515647,0.661784\C,0,1.134637,0.998594,-0.38387
 \C,0,0.91896,-1.20486,-0.267276\C,0,-1.19586,0.107828,-0.067523\C,0,-0
 .538576,-1.24056,0.251061\C,0,-0.265441,1.296976,0.209571\O,0,1.07388,
 -0.174558,-1.227908\O,0,1.803965,-0.876211,0.805887\O,0,-0.777077,2.47
 8015,-0.398831\O,0,-2.471713,0.265807,0.553333\O,0,-1.224428,-2.303458
 ,-0.400604\H,0,2.050069,1.012796,1.631095\H,0,3.170699,0.614259,0.2964
 61\H,0,1.480285,1.83754,-0.988801\H,0,1.20441,-2.159023,-0.717667\H,0,
 -1.404383,0.111329,-1.140823\H,0,-0.511881,-1.408234,1.338269\H,0,-0.1
 81139,1.447418,1.298314\H,0,-1.710219,2.536183,-0.128641\H,0,-2.343079
 ,0.245862,1.517641\H,0,-2.166182,-2.196641,-0.183353\\Version=EM64L-G0
 9RevC.01\State=1-A\HF=-610.6445901\RMSD=4.712e-09\Dipole=-0.3315844,0.
 6988772,1.5645473\Quadrupole=3.1541556,-4.0131328,0.8589772,2.9292715,
 -3.25296,1.9066492\PG=C01 [X(C6H10O5)]\\@


 IF YOU GET CONFUSED, LOGIC OUT YOUR DILEMMA

           --  PICKER X-RAY CORP.    DIGITAL PRINTER MANUAL CA. 1964
 Job cpu time:  0 days  0 hours 24 minutes 28.8 seconds.
 File lengths (MBytes):  RWF=     83 Int=      0 D2E=      0 Chk=      5 Scr=      1
 Normal termination of Gaussian 09 at Fri Apr 12 10:04:27 2019.
