 Entering Gaussian System, Link 0=g09
 Input=/home/mmarcarino.iquir/NMR/01_RSR_Levo03_OPTB_nmr.gjc
 Output=/home/mmarcarino.iquir/NMR/01_RSR_Levo03_OPTB_nmr.log
 Initial command:
 /share/apps/Gaussian09/EM64T.SSE4.2-enabled/g09/l1.exe /tmp/Gau-20097.inp -scrdir=/tmp/
 Entering Link 1 = /share/apps/Gaussian09/EM64T.SSE4.2-enabled/g09/l1.exe PID=     20098.
  
 Copyright (c) 1988,1990,1992,1993,1995,1998,2003,2009,2011,
            Gaussian, Inc.  All Rights Reserved.
  
 This is part of the Gaussian(R) 09 program.  It is based on
 the Gaussian(R) 03 system (copyright 2003, Gaussian, Inc.),
 the Gaussian(R) 98 system (copyright 1998, Gaussian, Inc.),
 the Gaussian(R) 94 system (copyright 1995, Gaussian, Inc.),
 the Gaussian 92(TM) system (copyright 1992, Gaussian, Inc.),
 the Gaussian 90(TM) system (copyright 1990, Gaussian, Inc.),
 the Gaussian 88(TM) system (copyright 1988, Gaussian, Inc.),
 the Gaussian 86(TM) system (copyright 1986, Carnegie Mellon
 University), and the Gaussian 82(TM) system (copyright 1983,
 Carnegie Mellon University). Gaussian is a federally registered
 trademark of Gaussian, Inc.
  
 This software contains proprietary and confidential information,
 including trade secrets, belonging to Gaussian, Inc.
  
 This software is provided under written license and may be
 used, copied, transmitted, or stored only in accord with that
 written license.
  
 The following legend is applicable only to US Government
 contracts under FAR:
  
                    RESTRICTED RIGHTS LEGEND
  
 Use, reproduction and disclosure by the US Government is
 subject to restrictions as set forth in subparagraphs (a)
 and (c) of the Commercial Computer Software - Restricted
 Rights clause in FAR 52.227-19.
  
 Gaussian, Inc.
 340 Quinnipiac St., Bldg. 40, Wallingford CT 06492
  
  
 ---------------------------------------------------------------
 Warning -- This program may not be used in any manner that
 competes with the business of Gaussian, Inc. or will provide
 assistance to any competitor of Gaussian, Inc.  The licensee
 of this program is prohibited from giving any competitor of
 Gaussian, Inc. access to this program.  By using this program,
 the user acknowledges that Gaussian, Inc. is engaged in the
 business of creating and licensing software in the field of
 computational chemistry and represents and warrants to the
 licensee that it is not a competitor of Gaussian, Inc. and that
 it will not use this program in any manner prohibited above.
 ---------------------------------------------------------------
  

 Cite this work as:
 Gaussian 09, Revision C.01,
 M. J. Frisch, G. W. Trucks, H. B. Schlegel, G. E. Scuseria, 
 M. A. Robb, J. R. Cheeseman, G. Scalmani, V. Barone, B. Mennucci, 
 G. A. Petersson, H. Nakatsuji, M. Caricato, X. Li, H. P. Hratchian, 
 A. F. Izmaylov, J. Bloino, G. Zheng, J. L. Sonnenberg, M. Hada, 
 M. Ehara, K. Toyota, R. Fukuda, J. Hasegawa, M. Ishida, T. Nakajima, 
 Y. Honda, O. Kitao, H. Nakai, T. Vreven, J. A. Montgomery, Jr., 
 J. E. Peralta, F. Ogliaro, M. Bearpark, J. J. Heyd, E. Brothers, 
 K. N. Kudin, V. N. Staroverov, T. Keith, R. Kobayashi, J. Normand, 
 K. Raghavachari, A. Rendell, J. C. Burant, S. S. Iyengar, J. Tomasi, 
 M. Cossi, N. Rega, J. M. Millam, M. Klene, J. E. Knox, J. B. Cross, 
 V. Bakken, C. Adamo, J. Jaramillo, R. Gomperts, R. E. Stratmann, 
 O. Yazyev, A. J. Austin, R. Cammi, C. Pomelli, J. W. Ochterski, 
 R. L. Martin, K. Morokuma, V. G. Zakrzewski, G. A. Voth, 
 P. Salvador, J. J. Dannenberg, S. Dapprich, A. D. Daniels, 
 O. Farkas, J. B. Foresman, J. V. Ortiz, J. Cioslowski, 
 and D. J. Fox, Gaussian, Inc., Wallingford CT, 2010.
 
 ******************************************
 Gaussian 09:  EM64L-G09RevC.01 23-Sep-2011
                12-Apr-2019 
 ******************************************
 %nprocshared=4
 Will use up to    4 processors via shared memory.
 ------------------------------------------------
 # mpw1pw91/6-31+g** nmr scrf=(pcm,solvent=water)
 ------------------------------------------------
 1/38=1/1;
 2/12=2,17=6,18=5,40=1/2;
 3/5=1,6=6,7=111,11=2,16=1,25=1,30=1,70=2201,72=1,74=-7/1,2,8,3;
 4//1;
 5/5=2,38=5,53=1/2;
 8/6=1,10=90,11=11/1;
 10/13=100,45=16/2;
 6/7=2,8=2,9=2,10=2,28=1/1;
 99/9=1/99;
 -------
 comment
 -------
 Charge =  0 Multiplicity = 1
 Symbolic Z-Matrix:
 6                    -2.15541   0.46524  -0.65681 
 6                    -1.15902   0.96782   0.38958 
 6                    -0.88748  -1.22755   0.26438 
 6                     1.19584   0.14497   0.05606 
 6                     0.57729  -1.22254  -0.24762 
 6                     0.23001   1.3019   -0.20696 
 8                    -1.07193  -0.20545   1.22967 
 8                    -1.77446  -0.91354  -0.81402 
 8                     0.70939   2.49754   0.40249 
 8                     2.37877   0.40094  -0.69467 
 8                     1.39871  -2.17714   0.42405 
 1                    -2.08203   0.97318  -1.62204 
 1                    -3.18522   0.52978  -0.28655 
 1                    -1.52271   1.79747   0.99681 
 1                    -1.16033  -2.18778   0.71189 
 1                     1.41906   0.1538    1.13139 
 1                     0.57081  -1.40413  -1.32949 
 1                     0.14578   1.44828  -1.29455 
 1                     1.62766   2.60271   0.09901 
 1                     3.03453  -0.26038  -0.41863 
 1                     1.22136  -3.05075   0.04021 
 
                          Input orientation:                          
 ---------------------------------------------------------------------
 Center     Atomic      Atomic             Coordinates (Angstroms)
 Number     Number       Type             X           Y           Z
 ---------------------------------------------------------------------
      1          6           0       -2.155409    0.465243   -0.656809
      2          6           0       -1.159025    0.967818    0.389584
      3          6           0       -0.887480   -1.227547    0.264377
      4          6           0        1.195840    0.144971    0.056057
      5          6           0        0.577286   -1.222535   -0.247615
      6          6           0        0.230011    1.301904   -0.206957
      7          8           0       -1.071934   -0.205451    1.229671
      8          8           0       -1.774463   -0.913539   -0.814024
      9          8           0        0.709387    2.497535    0.402493
     10          8           0        2.378767    0.400939   -0.694672
     11          8           0        1.398712   -2.177145    0.424049
     12          1           0       -2.082028    0.973182   -1.622042
     13          1           0       -3.185220    0.529775   -0.286551
     14          1           0       -1.522711    1.797468    0.996808
     15          1           0       -1.160334   -2.187781    0.711894
     16          1           0        1.419060    0.153798    1.131394
     17          1           0        0.570811   -1.404132   -1.329494
     18          1           0        0.145775    1.448275   -1.294553
     19          1           0        1.627664    2.602705    0.099013
     20          1           0        3.034532   -0.260379   -0.418629
     21          1           0        1.221362   -3.050753    0.040206
 ---------------------------------------------------------------------
                    Distance matrix (angstroms):
                    1          2          3          4          5
     1  C    0.000000
     2  C    1.529804   0.000000
     3  C    2.306895   2.215636   0.000000
     4  C    3.441166   2.516686   2.503483   0.000000
     5  C    3.237847   2.866783   1.551677   1.531306   0.000000
     6  C    2.567605   1.548191   2.805185   1.529868   2.548538
     7  O    2.276523   1.445646   1.417920   2.577395   2.436547
     8  O    1.439054   2.316666   1.431184   3.271114   2.438651
     9  O    3.668704   2.414780   4.055280   2.427182   3.778758
    10  O    4.534790   3.743386   3.773607   1.424230   2.465940
    11  O    4.558755   4.053887   2.480707   2.359830   1.427289
    12  H    1.093189   2.213279   3.135080   3.774436   3.712435
    13  H    1.096251   2.180483   2.944709   4.411252   4.150730
    14  H    2.215757   1.090554   3.176585   3.317571   3.883168
    15  H    3.146754   3.172017   1.093970   3.379854   2.207188
    16  H    4.008927   2.803468   2.824882   1.098296   2.122391
    17  H    3.373328   3.402015   2.167538   2.170284   1.097033
    18  H    2.582347   2.183955   3.264644   2.150671   2.900949
    19  H    4.410403   3.243905   4.585207   2.495751   3.981948
    20  H    5.245831   4.443827   4.096839   1.941758   2.644437
    21  H    4.924494   4.683719   2.796703   3.195865   1.959606
                    6          7          8          9         10
     6  C    0.000000
     7  O    2.455826   0.000000
     8  O    3.048710   2.274121   0.000000
     9  O    1.425049   3.341177   4.391452   0.000000
    10  O    2.380495   3.997267   4.357914   2.895914   0.000000
    11  O    3.723951   3.262008   3.632983   4.725280   2.976334
    12  H    2.730577   3.246803   2.075381   3.770198   4.591968
    13  H    3.502331   2.702862   2.086053   4.417559   5.580422
    14  H    2.183270   2.066182   3.269870   2.413621   4.475816
    15  H    3.867202   2.050741   2.080690   5.054085   4.604903
    16  H    2.126774   2.518684   3.888759   2.555002   2.077651
    17  H    2.949384   3.268757   2.450857   4.271064   2.632487
    18  H    1.100629   3.254125   3.081621   2.073299   2.538311
    19  H    1.933684   4.056101   4.977155   0.972828   2.458021
    20  H    3.217277   4.425265   4.869229   3.699545   0.971375
    21  H    4.470961   3.843147   3.777878   5.583625   3.714002
                   11         12         13         14         15
    11  O    0.000000
    12  H    5.121191   0.000000
    13  H    5.370736   1.788066   0.000000
    14  H    4.965915   2.801903   2.453160   0.000000
    15  H    2.575206   4.035897   3.533011   4.011820   0.000000
    16  H    2.435990   4.528843   4.832320   3.372504   3.508881
    17  H    2.087554   3.574180   4.351493   4.477137   2.788948
    18  H    4.203227   2.301319   3.599339   2.855892   4.353465
    19  H    4.796356   4.402180   5.254479   3.373323   5.576496
    20  H    2.657067   5.398987   6.271133   5.196793   4.752879
    21  H    0.970556   5.465117   5.687259   5.652457   2.620756
                   16         17         18         19         20
    16  H    0.000000
    17  H    3.033586   0.000000
    18  H    3.030205   2.884112   0.000000
    19  H    2.665797   4.383185   2.338959   0.000000
    20  H    2.276810   2.864920   3.468668   3.231792   0.000000
    21  H    3.391006   2.238449   4.814532   5.668344   3.359212
                   21
    21  H    0.000000
 Stoichiometry    C6H10O5
 Framework group  C1[X(C6H10O5)]
 Deg. of freedom    57
 Full point group                 C1      NOp   1
 Largest Abelian subgroup         C1      NOp   1
 Largest concise Abelian subgroup C1      NOp   1
                         Standard orientation:                         
 ---------------------------------------------------------------------
 Center     Atomic      Atomic             Coordinates (Angstroms)
 Number     Number       Type             X           Y           Z
 ---------------------------------------------------------------------
      1          6           0       -2.155410    0.465241   -0.656809
      2          6           0       -1.159026    0.967817    0.389584
      3          6           0       -0.887479   -1.227548    0.264377
      4          6           0        1.195840    0.144972    0.056057
      5          6           0        0.577287   -1.222534   -0.247615
      6          6           0        0.230010    1.301904   -0.206957
      7          8           0       -1.071934   -0.205452    1.229671
      8          8           0       -1.774462   -0.913541   -0.814024
      9          8           0        0.709384    2.497536    0.402493
     10          8           0        2.378767    0.400942   -0.694672
     11          8           0        1.398714   -2.177143    0.424049
     12          1           0       -2.082029    0.973180   -1.622042
     13          1           0       -3.185221    0.529772   -0.286551
     14          1           0       -1.522713    1.797466    0.996808
     15          1           0       -1.160332   -2.187782    0.711894
     16          1           0        1.419060    0.153800    1.131394
     17          1           0        0.570813   -1.404131   -1.329494
     18          1           0        0.145773    1.448275   -1.294553
     19          1           0        1.627661    2.602707    0.099013
     20          1           0        3.034532   -0.260376   -0.418629
     21          1           0        1.221365   -3.050752    0.040206
 ---------------------------------------------------------------------
 Rotational constants (GHZ):      1.4111314      1.2554377      0.8045067
 Standard basis: 6-31+G(d,p) (6D, 7F)
 There are   259 symmetry adapted basis functions of A   symmetry.
 Integral buffers will be    131072 words long.
 Raffenetti 2 integral format.
 Two-electron integral symmetry is turned on.
   259 basis functions,   422 primitive gaussians,   259 cartesian basis functions
    43 alpha electrons       43 beta electrons
       nuclear repulsion energy       717.2508755952 Hartrees.
 NAtoms=   21 NActive=   21 NUniq=   21 SFac= 1.00D+00 NAtFMM=   60 NAOKFM=F Big=F
 ------------------------------------------------------------------------------
 Polarizable Continuum Model (PCM)
 =================================
 Model                : PCM.
 Atomic radii         : UFF (Universal Force Field).
 Polarization charges : Total charges.
 Charge compensation  : None.
 Solution method      : Matrix inversion.
 Cavity type          : Scaled VdW (van der Waals Surface) (Alpha=1.100).
 Cavity algorithm     : GePol (No added spheres)
                        Default sphere list used, NSphG=   21.
                        Lebedev-Laikov grids with approx.  5.0 points / Ang**2.
                        Smoothing algorithm: Karplus/York (Gamma=1.0000).
                        Polarization charges: spherical gaussians, with
                                              point-specific exponents (IZeta= 3).
                        Self-potential: point-specific (ISelfS= 7).
                        Self-field    : sphere-specific E.n sum rule (ISelfD= 2).
 Solvent              : Water, Eps=  78.355300 Eps(inf)=   1.777849
 ------------------------------------------------------------------------------
 One-electron integrals computed using PRISM.
 NBasis=   259 RedAO= T  NBF=   259
 NBsUse=   259 1.00D-06 NBFU=   259
 Harris functional with IExCor=  908 diagonalized for initial guess.
 ExpMin= 4.38D-02 ExpMax= 5.48D+03 ExpMxC= 8.25D+02 IAcc=2 IRadAn=         4 AccDes= 0.00D+00
 HarFok:  IExCor=  908 AccDes= 0.00D+00 IRadAn=         4 IDoV= 1
 ScaDFX=  1.000000  1.000000  1.000000  1.000000
 FoFCou: FMM=F IPFlag=           0 FMFlag=      100000 FMFlg1=           0
         NFxFlg=           0 DoJE=T BraDBF=F KetDBF=T FulRan=T
         Omega=  0.000000  0.000000  1.000000  0.000000  0.000000 ICntrl=     500 IOpCl=  0
         NMat0=    1 NMatS0=    1 NMatT0=    0 NMatD0=    1 NMtDS0=    0 NMtDT0=    0
         I1Cent=           4 NGrid=           0.
 Petite list used in FoFCou.
 Initial guess orbital symmetries:
       Occupied  (A) (A) (A) (A) (A) (A) (A) (A) (A) (A) (A) (A)
                 (A) (A) (A) (A) (A) (A) (A) (A) (A) (A) (A) (A)
                 (A) (A) (A) (A) (A) (A) (A) (A) (A) (A) (A) (A)
                 (A) (A) (A) (A) (A) (A) (A)
       Virtual   (A) (A) (A) (A) (A) (A) (A) (A) (A) (A) (A) (A)
                 (A) (A) (A) (A) (A) (A) (A) (A) (A) (A) (A) (A)
                 (A) (A) (A) (A) (A) (A) (A) (A) (A) (A) (A) (A)
                 (A) (A) (A) (A) (A) (A) (A) (A) (A) (A) (A) (A)
                 (A) (A) (A) (A) (A) (A) (A) (A) (A) (A) (A) (A)
                 (A) (A) (A) (A) (A) (A) (A) (A) (A) (A) (A) (A)
                 (A) (A) (A) (A) (A) (A) (A) (A) (A) (A) (A) (A)
                 (A) (A) (A) (A) (A) (A) (A) (A) (A) (A) (A) (A)
                 (A) (A) (A) (A) (A) (A) (A) (A) (A) (A) (A) (A)
                 (A) (A) (A) (A) (A) (A) (A) (A) (A) (A) (A) (A)
                 (A) (A) (A) (A) (A) (A) (A) (A) (A) (A) (A) (A)
                 (A) (A) (A) (A) (A) (A) (A) (A) (A) (A) (A) (A)
                 (A) (A) (A) (A) (A) (A) (A) (A) (A) (A) (A) (A)
                 (A) (A) (A) (A) (A) (A) (A) (A) (A) (A) (A) (A)
                 (A) (A) (A) (A) (A) (A) (A) (A) (A) (A) (A) (A)
                 (A) (A) (A) (A) (A) (A) (A) (A) (A) (A) (A) (A)
                 (A) (A) (A) (A) (A) (A) (A) (A) (A) (A) (A) (A)
                 (A) (A) (A) (A) (A) (A) (A) (A) (A) (A) (A) (A)
 The electronic state of the initial guess is 1-A.
 Requested convergence on RMS density matrix=1.00D-08 within 128 cycles.
 Requested convergence on MAX density matrix=1.00D-06.
 Requested convergence on             energy=1.00D-06.
 No special actions if energy rises.
 Error on total polarization charges =  0.01191
 SCF Done:  E(RmPW1PW91) =  -610.645441759     A.U. after   12 cycles
             Convg  =    0.4431D-08             -V/T =  2.0090
 Range of M.O.s used for correlation:     1   259
 NBasis=   259 NAE=    43 NBE=    43 NFC=     0 NFV=     0
 NROrb=    259 NOA=    43 NOB=    43 NVA=   216 NVB=   216

 **** Warning!!: The largest alpha MO coefficient is  0.57556179D+02

 NEqPCM:  Using equilibrium solvation (IEInf=0, Eps=  78.3553, EpsInf=   1.7778)
          Differentiating once with respect to magnetic field using GIAOs.
          Electric field/nuclear overlap derivatives assumed to be zero.
 FoFCou: FMM=F IPFlag=           0 FMFlag=    10101102 FMFlg1=           0
         NFxFlg=    40000000 DoJE=F BraDBF=F KetDBF=T FulRan=T
         Omega=  0.000000  0.000000  1.000000  0.000000  0.000000 ICntrl=    6100 IOpCl=  0
         NMat0=    1 NMatS0=    1 NMatT0=    0 NMatD0=    1 NMtDS0=    0 NMtDT0=    0
         I1Cent=           7 NGrid=        1551.
 Symmetry not used in FoFCou.
          There are     3 degrees of freedom in the 1st order CPHF.  IDoFFX=0.
      3 vectors produced by pass  0 Test12= 3.10D-13 3.33D-08 XBig12= 2.54D+01 1.63D+00.
 AX will form     3 AO Fock derivatives at one time.
      3 vectors produced by pass  1 Test12= 3.10D-13 3.33D-08 XBig12= 6.44D-02 5.13D-02.
      3 vectors produced by pass  2 Test12= 3.10D-13 3.33D-08 XBig12= 1.75D-04 3.00D-03.
      3 vectors produced by pass  3 Test12= 3.10D-13 3.33D-08 XBig12= 8.36D-07 2.31D-04.
      3 vectors produced by pass  4 Test12= 3.10D-13 3.33D-08 XBig12= 2.38D-09 7.31D-06.
      3 vectors produced by pass  5 Test12= 3.10D-13 3.33D-08 XBig12= 6.72D-12 3.43D-07.
 Inverted reduced A of dimension    18 with in-core refinement.
 Calculating GIAO nuclear magnetic shielding tensors.
 SCF GIAO Magnetic shielding tensor (ppm):
      1  C    Isotropic =   126.4151   Anisotropy =    44.0626
   XX=   113.4246   YX=   -12.5954   ZX=     9.2907
   XY=     1.0368   YY=   154.0698   ZY=    12.3620
   XZ=     4.3034   YZ=     2.1466   ZZ=   111.7510
   Eigenvalues:   104.0245   119.4306   155.7902
      2  C    Isotropic =   116.5441   Anisotropy =    41.9430
   XX=   106.7594   YX=     6.5738   ZX=     7.7638
   XY=     1.1466   YY=   134.6008   ZY=   -18.2332
   XZ=     1.2251   YZ=   -19.5380   ZZ=   108.2721
   Eigenvalues:    95.4592   109.6670   144.5061
      3  C    Isotropic =    89.7850   Anisotropy =    23.4359
   XX=    92.7803   YX=   -11.0741   ZX=    16.5159
   XY=    -9.3755   YY=    85.8719   ZY=    -0.2091
   XZ=     9.4284   YZ=    13.3287   ZZ=    90.7027
   Eigenvalues:    69.9174    94.0286   105.4089
      4  C    Isotropic =   118.6100   Anisotropy =    20.4680
   XX=   121.8773   YX=     1.0336   ZX=   -12.4141
   XY=     2.4622   YY=   117.5082   ZY=    -0.3498
   XZ=   -13.1423   YZ=     2.5401   ZZ=   116.4445
   Eigenvalues:   105.7723   117.8024   132.2553
      5  C    Isotropic =   116.9503   Anisotropy =    25.7758
   XX=   128.0297   YX=   -15.9013   ZX=     6.6071
   XY=     0.6858   YY=   108.8962   ZY=    -6.7666
   XZ=     1.2075   YZ=   -16.9023   ZZ=   113.9249
   Eigenvalues:    98.8651   117.8517   134.1341
      6  C    Isotropic =   119.4372   Anisotropy =    28.7322
   XX=   122.8913   YX=    18.6217   ZX=     9.3343
   XY=     4.4955   YY=   122.0815   ZY=     9.3206
   XZ=     1.9065   YZ=     9.6774   ZZ=   113.3388
   Eigenvalues:   106.9790   112.7405   138.5919
      7  O    Isotropic =   246.5878   Anisotropy =    46.3201
   XX=   225.2844   YX=   -29.2893   ZX=    16.6462
   XY=   -20.0804   YY=   250.2973   ZY=    14.6417
   XZ=    35.9710   YZ=     9.0659   ZZ=   264.1817
   Eigenvalues:   197.7504   264.5451   277.4679
      8  O    Isotropic =   259.6012   Anisotropy =   125.8533
   XX=   240.2445   YX=   -40.3249   ZX=    61.8541
   XY=   -28.8756   YY=   240.9936   ZY=    29.6526
   XZ=    67.0893   YZ=    59.0175   ZZ=   297.5656
   Eigenvalues:   161.7860   273.5143   343.5034
      9  O    Isotropic =   292.2237   Anisotropy =    53.9447
   XX=   320.1176   YX=    25.5487   ZX=     2.6049
   XY=    12.1997   YY=   275.9601   ZY=     2.8969
   XZ=     2.2812   YZ=    24.5869   ZZ=   280.5934
   Eigenvalues:   261.2055   287.2788   328.1868
     10  O    Isotropic =   306.6304   Anisotropy =    37.9270
   XX=   308.6093   YX=   -16.0392   ZX=    -3.5068
   XY=   -32.0591   YY=   292.3256   ZY=     4.2076
   XZ=   -24.1067   YZ=   -15.8965   ZZ=   318.9563
   Eigenvalues:   271.5404   316.4357   331.9150
     11  O    Isotropic =   294.7658   Anisotropy =    47.7338
   XX=   276.0086   YX=    15.9874   ZX=     9.7537
   XY=    -5.2342   YY=   326.0153   ZY=    -2.5340
   XZ=    21.8170   YZ=    -0.3347   ZZ=   282.2734
   Eigenvalues:   262.6419   295.0671   326.5883
     12  H    Isotropic =    27.7197   Anisotropy =     7.6209
   XX=    26.2429   YX=    -1.4186   ZX=     1.8178
   XY=    -1.4721   YY=    28.2708   ZY=    -3.9617
   XZ=     2.6516   YZ=    -2.6134   ZZ=    28.6454
   Eigenvalues:    24.7298    25.6290    32.8003
     13  H    Isotropic =    27.8678   Anisotropy =    10.9758
   XX=    33.9413   YX=    -3.1482   ZX=     0.0391
   XY=    -3.1115   YY=    26.6692   ZY=     1.2322
   XZ=    -1.3205   YZ=     1.0503   ZZ=    22.9930
   Eigenvalues:    22.6609    25.7576    35.1850
     14  H    Isotropic =    27.1296   Anisotropy =     6.7110
   XX=    26.6405   YX=    -2.2231   ZX=    -2.2086
   XY=    -1.0010   YY=    29.9820   ZY=     2.4700
   XZ=    -1.4390   YZ=     1.5497   ZZ=    24.7664
   Eigenvalues:    23.5026    26.2826    31.6036
     15  H    Isotropic =    26.3152   Anisotropy =     6.6333
   XX=    25.1257   YX=     1.4979   ZX=    -0.0821
   XY=     0.8873   YY=    29.8929   ZY=    -1.7763
   XZ=     0.2109   YZ=    -2.2636   ZZ=    23.9271
   Eigenvalues:    23.2104    24.9978    30.7374
     16  H    Isotropic =    28.0300   Anisotropy =     3.4892
   XX=    29.1059   YX=     0.7904   ZX=    -1.7621
   XY=     0.6926   YY=    25.8199   ZY=    -0.3945
   XZ=    -0.4540   YZ=    -0.1456   ZZ=    29.1642
   Eigenvalues:    25.6600    28.0738    30.3561
     17  H    Isotropic =    28.2319   Anisotropy =     3.2048
   XX=    27.9869   YX=    -2.2091   ZX=     1.4269
   XY=    -2.9140   YY=    27.1851   ZY=     0.3269
   XZ=     0.9005   YZ=     1.4887   ZZ=    29.5238
   Eigenvalues:    24.5697    29.7576    30.3685
     18  H    Isotropic =    27.9080   Anisotropy =     4.0042
   XX=    26.4210   YX=     1.5480   ZX=     2.0730
   XY=     3.0464   YY=    27.4990   ZY=     0.3141
   XZ=     1.2811   YZ=    -1.3313   ZZ=    29.8041
   Eigenvalues:    24.1257    29.0209    30.5775
     19  H    Isotropic =    29.0409   Anisotropy =    18.0706
   XX=    38.0202   YX=     4.5874   ZX=    -5.7756
   XY=     5.4787   YY=    28.4918   ZY=     2.1733
   XZ=    -4.7027   YZ=     0.8728   ZZ=    20.6107
   Eigenvalues:    18.3003    27.7345    41.0879
     20  H    Isotropic =    29.1635   Anisotropy =    18.8515
   XX=    36.8542   YX=    -7.6369   ZX=     0.5542
   XY=    -6.8568   YY=    29.3512   ZY=    -5.1029
   XZ=     1.1480   YZ=    -3.8065   ZZ=    21.2852
   Eigenvalues:    18.9743    26.7851    41.7312
     21  H    Isotropic =    29.4637   Anisotropy =    19.9018
   XX=    23.3939   YX=    -1.1297   ZX=     3.0463
   XY=    -0.5771   YY=    41.4669   ZY=     5.0835
   XZ=     1.8541   YZ=     4.7616   ZZ=    23.5303
   Eigenvalues:    20.1842    25.4754    42.7316
 End of Minotr Frequency-dependent properties file   721 does not exist.
 End of Minotr Frequency-dependent properties file   722 does not exist.

 **********************************************************************

            Population analysis using the SCF density.

 **********************************************************************

 Orbital symmetries:
       Occupied  (A) (A) (A) (A) (A) (A) (A) (A) (A) (A) (A) (A)
                 (A) (A) (A) (A) (A) (A) (A) (A) (A) (A) (A) (A)
                 (A) (A) (A) (A) (A) (A) (A) (A) (A) (A) (A) (A)
                 (A) (A) (A) (A) (A) (A) (A)
       Virtual   (A) (A) (A) (A) (A) (A) (A) (A) (A) (A) (A) (A)
                 (A) (A) (A) (A) (A) (A) (A) (A) (A) (A) (A) (A)
                 (A) (A) (A) (A) (A) (A) (A) (A) (A) (A) (A) (A)
                 (A) (A) (A) (A) (A) (A) (A) (A) (A) (A) (A) (A)
                 (A) (A) (A) (A) (A) (A) (A) (A) (A) (A) (A) (A)
                 (A) (A) (A) (A) (A) (A) (A) (A) (A) (A) (A) (A)
                 (A) (A) (A) (A) (A) (A) (A) (A) (A) (A) (A) (A)
                 (A) (A) (A) (A) (A) (A) (A) (A) (A) (A) (A) (A)
                 (A) (A) (A) (A) (A) (A) (A) (A) (A) (A) (A) (A)
                 (A) (A) (A) (A) (A) (A) (A) (A) (A) (A) (A) (A)
                 (A) (A) (A) (A) (A) (A) (A) (A) (A) (A) (A) (A)
                 (A) (A) (A) (A) (A) (A) (A) (A) (A) (A) (A) (A)
                 (A) (A) (A) (A) (A) (A) (A) (A) (A) (A) (A) (A)
                 (A) (A) (A) (A) (A) (A) (A) (A) (A) (A) (A) (A)
                 (A) (A) (A) (A) (A) (A) (A) (A) (A) (A) (A) (A)
                 (A) (A) (A) (A) (A) (A) (A) (A) (A) (A) (A) (A)
                 (A) (A) (A) (A) (A) (A) (A) (A) (A) (A) (A) (A)
                 (A) (A) (A) (A) (A) (A) (A) (A) (A) (A) (A) (A)
 The electronic state is 1-A.
 Alpha  occ. eigenvalues --  -19.27831 -19.26949 -19.26836 -19.26625 -19.26308
 Alpha  occ. eigenvalues --  -10.35971 -10.32016 -10.31629 -10.31277 -10.31237
 Alpha  occ. eigenvalues --  -10.30690  -1.14332  -1.08508  -1.07090  -1.05672
 Alpha  occ. eigenvalues --   -1.04049  -0.82295  -0.81399  -0.70262  -0.68643
 Alpha  occ. eigenvalues --   -0.64898  -0.59804  -0.58218  -0.56561  -0.54516
 Alpha  occ. eigenvalues --   -0.52099  -0.50127  -0.49939  -0.47422  -0.46205
 Alpha  occ. eigenvalues --   -0.44943  -0.43401  -0.41897  -0.40155  -0.38371
 Alpha  occ. eigenvalues --   -0.37817  -0.37052  -0.36473  -0.33501  -0.31475
 Alpha  occ. eigenvalues --   -0.30606  -0.30179  -0.27553
 Alpha virt. eigenvalues --    0.00895   0.01344   0.01799   0.02753   0.03689
 Alpha virt. eigenvalues --    0.04148   0.04454   0.05467   0.06169   0.07650
 Alpha virt. eigenvalues --    0.08439   0.09296   0.09662   0.10271   0.11479
 Alpha virt. eigenvalues --    0.11858   0.12565   0.13022   0.13777   0.14271
 Alpha virt. eigenvalues --    0.14960   0.15570   0.15689   0.16285   0.16555
 Alpha virt. eigenvalues --    0.18087   0.18569   0.19202   0.20590   0.21135
 Alpha virt. eigenvalues --    0.21826   0.22431   0.22875   0.23770   0.24688
 Alpha virt. eigenvalues --    0.25212   0.25502   0.25672   0.26533   0.27377
 Alpha virt. eigenvalues --    0.27915   0.28198   0.28696   0.29689   0.31010
 Alpha virt. eigenvalues --    0.31835   0.32423   0.32684   0.32909   0.33745
 Alpha virt. eigenvalues --    0.34533   0.35151   0.35804   0.36239   0.36622
 Alpha virt. eigenvalues --    0.37600   0.38220   0.38696   0.39744   0.40701
 Alpha virt. eigenvalues --    0.41855   0.42475   0.43075   0.44195   0.45319
 Alpha virt. eigenvalues --    0.45740   0.65105   0.68044   0.69169   0.70598
 Alpha virt. eigenvalues --    0.71445   0.74364   0.75180   0.76392   0.78904
 Alpha virt. eigenvalues --    0.79981   0.81463   0.82237   0.84236   0.85735
 Alpha virt. eigenvalues --    0.86415   0.89226   0.94131   0.95533   0.97444
 Alpha virt. eigenvalues --    0.99982   1.02664   1.04780   1.04835   1.05661
 Alpha virt. eigenvalues --    1.07009   1.08749   1.09681   1.12488   1.13881
 Alpha virt. eigenvalues --    1.18260   1.22283   1.24831   1.25919   1.27607
 Alpha virt. eigenvalues --    1.28289   1.29770   1.31876   1.32288   1.33534
 Alpha virt. eigenvalues --    1.35941   1.36287   1.39173   1.39837   1.41015
 Alpha virt. eigenvalues --    1.44517   1.44907   1.46879   1.47987   1.52014
 Alpha virt. eigenvalues --    1.53169   1.54644   1.57169   1.57999   1.60396
 Alpha virt. eigenvalues --    1.60603   1.61721   1.64434   1.68070   1.69045
 Alpha virt. eigenvalues --    1.71542   1.74663   1.75771   1.77233   1.77850
 Alpha virt. eigenvalues --    1.81208   1.83129   1.83861   1.85547   1.86567
 Alpha virt. eigenvalues --    1.88701   1.93710   1.93830   1.97177   1.98284
 Alpha virt. eigenvalues --    2.00603   2.01170   2.03497   2.06089   2.08335
 Alpha virt. eigenvalues --    2.09008   2.09939   2.13594   2.14607   2.18348
 Alpha virt. eigenvalues --    2.19706   2.20872   2.25258   2.28068   2.29834
 Alpha virt. eigenvalues --    2.33193   2.35043   2.38063   2.39944   2.42315
 Alpha virt. eigenvalues --    2.45784   2.47466   2.50018   2.52544   2.53142
 Alpha virt. eigenvalues --    2.56092   2.57586   2.60823   2.61520   2.63591
 Alpha virt. eigenvalues --    2.65695   2.66107   2.67592   2.68726   2.71233
 Alpha virt. eigenvalues --    2.71718   2.74038   2.76284   2.77566   2.81853
 Alpha virt. eigenvalues --    2.82871   2.86317   2.86544   2.88738   2.92843
 Alpha virt. eigenvalues --    2.94294   2.96418   2.97434   3.01714   3.04752
 Alpha virt. eigenvalues --    3.06516   3.07705   3.11431   3.22117   3.28595
 Alpha virt. eigenvalues --    3.34767   3.37582   3.42193   3.46309   3.49400
 Alpha virt. eigenvalues --    3.51903   3.53498   3.54300   3.56289   3.58727
 Alpha virt. eigenvalues --    4.30466   4.36095   4.41123   4.44010   4.50731
 Alpha virt. eigenvalues --    4.59333   4.68022   4.73642   4.78495   4.93755
 Alpha virt. eigenvalues --    5.03483
          Condensed to atoms (all electrons):
              1          2          3          4          5          6
     1  C    5.477470  -0.097162  -0.252176   0.144422   0.024826  -0.142330
     2  C   -0.097162   6.548770  -0.300216  -0.280950   0.163676  -0.308944
     3  C   -0.252176  -0.300216   6.356992  -0.272419  -0.353446   0.026820
     4  C    0.144422  -0.280950  -0.272419   6.330359  -0.332898   0.094007
     5  C    0.024826   0.163676  -0.353446  -0.332898   6.543257  -0.450976
     6  C   -0.142330  -0.308944   0.026820   0.094007  -0.450976   6.393852
     7  O   -0.037335   0.134985   0.323593  -0.029003  -0.108358  -0.149826
     8  O    0.186983  -0.158885   0.284445   0.013021  -0.144032   0.083857
     9  O    0.025882  -0.132455   0.004132  -0.098553   0.014193   0.295529
    10  O   -0.000705   0.054056   0.034329   0.254423  -0.078587  -0.170042
    11  O    0.004065   0.002323  -0.132824  -0.131094   0.301952   0.023246
    12  H    0.464364  -0.121156   0.013999   0.004670   0.010551  -0.006819
    13  H    0.374807  -0.013557  -0.013213  -0.002365   0.004777   0.025180
    14  H    0.017217   0.300010   0.001762   0.016633   0.000301   0.010593
    15  H    0.003090   0.012516   0.359393   0.020522  -0.032955   0.019499
    16  H    0.009939  -0.020448   0.003359   0.422313  -0.012533  -0.087155
    17  H    0.018246  -0.004080  -0.046969  -0.054956   0.426356  -0.019714
    18  H    0.037173  -0.140275   0.005106  -0.012103   0.029116   0.378775
    19  H   -0.006485   0.026968  -0.000873  -0.052467   0.022249   0.008965
    20  H    0.000664  -0.007398   0.007111   0.029192  -0.064133   0.033008
    21  H    0.000039  -0.001641  -0.035652   0.017559   0.033178  -0.001780
              7          8          9         10         11         12
     1  C   -0.037335   0.186983   0.025882  -0.000705   0.004065   0.464364
     2  C    0.134985  -0.158885  -0.132455   0.054056   0.002323  -0.121156
     3  C    0.323593   0.284445   0.004132   0.034329  -0.132824   0.013999
     4  C   -0.029003   0.013021  -0.098553   0.254423  -0.131094   0.004670
     5  C   -0.108358  -0.144032   0.014193  -0.078587   0.301952   0.010551
     6  C   -0.149826   0.083857   0.295529  -0.170042   0.023246  -0.006819
     7  O    8.318657  -0.068373   0.016787  -0.000683   0.012273   0.011958
     8  O   -0.068373   8.322225  -0.001945  -0.004829   0.004207  -0.050525
     9  O    0.016787  -0.001945   8.251377  -0.013624  -0.000143   0.000737
    10  O   -0.000683  -0.004829  -0.013624   8.295976  -0.006920   0.000152
    11  O    0.012273   0.004207  -0.000143  -0.006920   8.289116  -0.000011
    12  H    0.011958  -0.050525   0.000737   0.000152  -0.000011   0.526180
    13  H   -0.006591  -0.045942  -0.000322  -0.000038   0.000024  -0.037178
    14  H   -0.033467   0.008520  -0.003484  -0.000521   0.000065   0.001809
    15  H   -0.052758  -0.041469  -0.000046  -0.000745  -0.001529  -0.000253
    16  H    0.007822  -0.000911  -0.001293  -0.051145  -0.004433   0.000004
    17  H    0.011253  -0.006184   0.000001  -0.001137  -0.045192  -0.000052
    18  H    0.010885  -0.001771  -0.044937  -0.001821  -0.000540   0.002043
    19  H   -0.001438   0.000092   0.238077   0.015752  -0.000088  -0.000006
    20  H    0.000411   0.000026   0.001472   0.242531   0.012374   0.000000
    21  H   -0.001061   0.000171   0.000012  -0.000255   0.239116   0.000000
             13         14         15         16         17         18
     1  C    0.374807   0.017217   0.003090   0.009939   0.018246   0.037173
     2  C   -0.013557   0.300010   0.012516  -0.020448  -0.004080  -0.140275
     3  C   -0.013213   0.001762   0.359393   0.003359  -0.046969   0.005106
     4  C   -0.002365   0.016633   0.020522   0.422313  -0.054956  -0.012103
     5  C    0.004777   0.000301  -0.032955  -0.012533   0.426356   0.029116
     6  C    0.025180   0.010593   0.019499  -0.087155  -0.019714   0.378775
     7  O   -0.006591  -0.033467  -0.052758   0.007822   0.011253   0.010885
     8  O   -0.045942   0.008520  -0.041469  -0.000911  -0.006184  -0.001771
     9  O   -0.000322  -0.003484  -0.000046  -0.001293   0.000001  -0.044937
    10  O   -0.000038  -0.000521  -0.000745  -0.051145  -0.001137  -0.001821
    11  O    0.000024   0.000065  -0.001529  -0.004433  -0.045192  -0.000540
    12  H   -0.037178   0.001809  -0.000253   0.000004  -0.000052   0.002043
    13  H    0.539349  -0.002603   0.000583   0.000000  -0.000036   0.000200
    14  H   -0.002603   0.481680   0.000013   0.000054   0.000014   0.001932
    15  H    0.000583   0.000013   0.527410  -0.000313   0.000175  -0.000004
    16  H    0.000000   0.000054  -0.000313   0.535713   0.003984   0.004554
    17  H   -0.000036   0.000014   0.000175   0.003984   0.527214   0.001981
    18  H    0.000200   0.001932  -0.000004   0.004554   0.001981   0.557142
    19  H    0.000004   0.000205   0.000000  -0.000748  -0.000016  -0.004229
    20  H    0.000000   0.000004  -0.000002  -0.005312  -0.000166   0.000083
    21  H    0.000000   0.000000   0.001948   0.000144  -0.006327   0.000008
             19         20         21
     1  C   -0.006485   0.000664   0.000039
     2  C    0.026968  -0.007398  -0.001641
     3  C   -0.000873   0.007111  -0.035652
     4  C   -0.052467   0.029192   0.017559
     5  C    0.022249  -0.064133   0.033178
     6  C    0.008965   0.033008  -0.001780
     7  O   -0.001438   0.000411  -0.001061
     8  O    0.000092   0.000026   0.000171
     9  O    0.238077   0.001472   0.000012
    10  O    0.015752   0.242531  -0.000255
    11  O   -0.000088   0.012374   0.239116
    12  H   -0.000006   0.000000   0.000000
    13  H    0.000004   0.000000   0.000000
    14  H    0.000205   0.000004   0.000000
    15  H    0.000000  -0.000002   0.001948
    16  H   -0.000748  -0.005312   0.000144
    17  H   -0.000016  -0.000166  -0.006327
    18  H   -0.004229   0.000083   0.000008
    19  H    0.372614  -0.000797   0.000000
    20  H   -0.000797   0.359517  -0.000605
    21  H    0.000000  -0.000605   0.361797
 Mulliken atomic charges:
              1
     1  C   -0.252995
     2  C    0.343863
     3  C   -0.013253
     4  C   -0.080315
     5  C    0.003485
     6  C   -0.055743
     7  O   -0.359732
     8  O   -0.378682
     9  O   -0.551397
    10  O   -0.566166
    11  O   -0.565985
    12  H    0.179533
    13  H    0.176920
    14  H    0.199262
    15  H    0.184926
    16  H    0.196404
    17  H    0.195604
    18  H    0.176681
    19  H    0.382221
    20  H    0.392019
    21  H    0.393349
 Sum of Mulliken atomic charges =   0.00000
 Mulliken charges with hydrogens summed into heavy atoms:
              1
     1  C    0.103458
     2  C    0.543125
     3  C    0.171673
     4  C    0.116090
     5  C    0.199089
     6  C    0.120938
     7  O   -0.359732
     8  O   -0.378682
     9  O   -0.169176
    10  O   -0.174147
    11  O   -0.172636
 Sum of Mulliken charges with hydrogens summed into heavy atoms =   0.00000
 Electronic spatial extent (au):  <R**2>=           1510.6846
 Charge=              0.0000 electrons
 Dipole moment (field-independent basis, Debye):
    X=              0.2115    Y=             -1.6071    Z=             -1.9560  Tot=              2.5403
 Quadrupole moment (field-independent basis, Debye-Ang):
   XX=            -60.8370   YY=            -59.8262   ZZ=            -70.4275
   XY=             -5.0281   XZ=              0.0878   YZ=             -0.6278
 Traceless Quadrupole moment (field-independent basis, Debye-Ang):
   XX=              2.8599   YY=              3.8707   ZZ=             -6.7306
   XY=             -5.0281   XZ=              0.0878   YZ=             -0.6278
 Octapole moment (field-independent basis, Debye-Ang**2):
  XXX=             17.1565  YYY=            -48.3554  ZZZ=             -4.9307  XYY=              8.6293
  XXY=             12.1905  XXZ=              4.0973  XZZ=              0.8976  YZZ=              2.9931
  YYZ=             -9.3174  XYZ=              9.5097
 Hexadecapole moment (field-independent basis, Debye-Ang**3):
 XXXX=           -777.3362 YYYY=           -670.4369 ZZZZ=           -237.8209 XXXY=            -26.5769
 XXXZ=              0.9377 YYYX=             -2.6310 YYYZ=             -5.2758 ZZZX=              6.5509
 ZZZY=             -0.5548 XXYY=           -249.0469 XXZZ=           -197.9470 YYZZ=           -170.3698
 XXYZ=              5.6518 YYXZ=            -22.9786 ZZXY=             -8.8253
 N-N= 7.172508755952D+02 E-N=-2.864559975110D+03  KE= 6.052108745432D+02
 1\1\GINC-COMPUTE-8-21\SP\RmPW1PW91\6-31+G(d,p)\C6H10O5\MMARCARINO.IQUI
 R\12-Apr-2019\0\\# mpw1pw91/6-31+g** nmr scrf=(pcm,solvent=water)\\com
 ment\\0,1\C,0,-2.155409,0.465243,-0.656809\C,0,-1.159025,0.967818,0.38
 9584\C,0,-0.88748,-1.227547,0.264377\C,0,1.19584,0.144971,0.056057\C,0
 ,0.577286,-1.222535,-0.247615\C,0,0.230011,1.301904,-0.206957\O,0,-1.0
 71934,-0.205451,1.229671\O,0,-1.774463,-0.913539,-0.814024\O,0,0.70938
 7,2.497535,0.402493\O,0,2.378767,0.400939,-0.694672\O,0,1.398712,-2.17
 7145,0.424049\H,0,-2.082028,0.973182,-1.622042\H,0,-3.18522,0.529775,-
 0.286551\H,0,-1.522711,1.797468,0.996808\H,0,-1.160334,-2.187781,0.711
 894\H,0,1.41906,0.153798,1.131394\H,0,0.570811,-1.404132,-1.329494\H,0
 ,0.145775,1.448275,-1.294553\H,0,1.627664,2.602705,0.099013\H,0,3.0345
 32,-0.260379,-0.418629\H,0,1.221362,-3.050753,0.040206\\Version=EM64L-
 G09RevC.01\State=1-A\HF=-610.6454418\RMSD=4.431e-09\Dipole=0.0832221,-
 0.632266,-0.7695484\Quadrupole=2.1262466,2.8777765,-5.0040231,-3.73825
 07,0.0652523,-0.4667314\PG=C01 [X(C6H10O5)]\\@


 You never know when you're making a memory.
                        -- Rickie Lee Jones
 Job cpu time:  0 days  0 hours 17 minutes 21.3 seconds.
 File lengths (MBytes):  RWF=     84 Int=      0 D2E=      0 Chk=      5 Scr=      1
 Normal termination of Gaussian 09 at Fri Apr 12 09:56:51 2019.
