 Entering Gaussian System, Link 0=g09
 Input=/home/asarotti.iquir/SCF3/01_RSR_Levo20_OPTB_energy_b3lyp_smd.gjc
 Output=/home/asarotti.iquir/SCF3/01_RSR_Levo20_OPTB_energy_b3lyp_smd.log
 Initial command:
 /share/apps/Gaussian09/EM64T.SSE4.2-enabled/g09/l1.exe /tmp/Gau-5535.inp -scrdir=/tmp/
 Entering Link 1 = /share/apps/Gaussian09/EM64T.SSE4.2-enabled/g09/l1.exe PID=      5536.
  
 Copyright (c) 1988,1990,1992,1993,1995,1998,2003,2009,2011,
            Gaussian, Inc.  All Rights Reserved.
  
 This is part of the Gaussian(R) 09 program.  It is based on
 the Gaussian(R) 03 system (copyright 2003, Gaussian, Inc.),
 the Gaussian(R) 98 system (copyright 1998, Gaussian, Inc.),
 the Gaussian(R) 94 system (copyright 1995, Gaussian, Inc.),
 the Gaussian 92(TM) system (copyright 1992, Gaussian, Inc.),
 the Gaussian 90(TM) system (copyright 1990, Gaussian, Inc.),
 the Gaussian 88(TM) system (copyright 1988, Gaussian, Inc.),
 the Gaussian 86(TM) system (copyright 1986, Carnegie Mellon
 University), and the Gaussian 82(TM) system (copyright 1983,
 Carnegie Mellon University). Gaussian is a federally registered
 trademark of Gaussian, Inc.
  
 This software contains proprietary and confidential information,
 including trade secrets, belonging to Gaussian, Inc.
  
 This software is provided under written license and may be
 used, copied, transmitted, or stored only in accord with that
 written license.
  
 The following legend is applicable only to US Government
 contracts under FAR:
  
                    RESTRICTED RIGHTS LEGEND
  
 Use, reproduction and disclosure by the US Government is
 subject to restrictions as set forth in subparagraphs (a)
 and (c) of the Commercial Computer Software - Restricted
 Rights clause in FAR 52.227-19.
  
 Gaussian, Inc.
 340 Quinnipiac St., Bldg. 40, Wallingford CT 06492
  
  
 ---------------------------------------------------------------
 Warning -- This program may not be used in any manner that
 competes with the business of Gaussian, Inc. or will provide
 assistance to any competitor of Gaussian, Inc.  The licensee
 of this program is prohibited from giving any competitor of
 Gaussian, Inc. access to this program.  By using this program,
 the user acknowledges that Gaussian, Inc. is engaged in the
 business of creating and licensing software in the field of
 computational chemistry and represents and warrants to the
 licensee that it is not a competitor of Gaussian, Inc. and that
 it will not use this program in any manner prohibited above.
 ---------------------------------------------------------------
  

 Cite this work as:
 Gaussian 09, Revision C.01,
 M. J. Frisch, G. W. Trucks, H. B. Schlegel, G. E. Scuseria, 
 M. A. Robb, J. R. Cheeseman, G. Scalmani, V. Barone, B. Mennucci, 
 G. A. Petersson, H. Nakatsuji, M. Caricato, X. Li, H. P. Hratchian, 
 A. F. Izmaylov, J. Bloino, G. Zheng, J. L. Sonnenberg, M. Hada, 
 M. Ehara, K. Toyota, R. Fukuda, J. Hasegawa, M. Ishida, T. Nakajima, 
 Y. Honda, O. Kitao, H. Nakai, T. Vreven, J. A. Montgomery, Jr., 
 J. E. Peralta, F. Ogliaro, M. Bearpark, J. J. Heyd, E. Brothers, 
 K. N. Kudin, V. N. Staroverov, T. Keith, R. Kobayashi, J. Normand, 
 K. Raghavachari, A. Rendell, J. C. Burant, S. S. Iyengar, J. Tomasi, 
 M. Cossi, N. Rega, J. M. Millam, M. Klene, J. E. Knox, J. B. Cross, 
 V. Bakken, C. Adamo, J. Jaramillo, R. Gomperts, R. E. Stratmann, 
 O. Yazyev, A. J. Austin, R. Cammi, C. Pomelli, J. W. Ochterski, 
 R. L. Martin, K. Morokuma, V. G. Zakrzewski, G. A. Voth, 
 P. Salvador, J. J. Dannenberg, S. Dapprich, A. D. Daniels, 
 O. Farkas, J. B. Foresman, J. V. Ortiz, J. Cioslowski, 
 and D. J. Fox, Gaussian, Inc., Wallingford CT, 2010.
 
 ******************************************
 Gaussian 09:  EM64L-G09RevC.01 23-Sep-2011
                15-Apr-2019 
 ******************************************
 %nprocshared=4
 Will use up to    4 processors via shared memory.
 -----------------------------------------------------------
 # B3LYP/6-31+G** test scrf=(pcm,solvent=water,smd,dovacuum)
 -----------------------------------------------------------
 1/38=1/1;
 2/12=2,17=6,18=5,40=1/2;
 3/5=1,6=6,7=111,11=2,16=1,25=1,30=1,70=32101,72=1,74=-5/1,2,3;
 4//1;
 5/5=2,38=5,53=1/2;
 6/7=2,8=2,9=2,10=2,28=1/1;
 99/5=1,9=1/99;
 -------
 comment
 -------
 Charge =  0 Multiplicity = 1
 Symbolic Z-Matrix:
 6                     1.94259   0.69038   0.07439 
 6                     0.70019   1.03061  -0.76677 
 6                     0.72715  -1.16992  -0.51432 
 6                    -0.85541   0.10154   1.0295 
 6                    -0.54907  -1.25104   0.34708 
 6                    -0.57306   1.27853   0.0634 
 8                     0.5284   -0.18566  -1.51783 
 8                     1.85445  -0.73929   0.23568 
 8                    -1.7194    1.34836  -0.78935 
 8                    -0.08305   0.1937    2.22251 
 8                    -1.63641  -1.64959  -0.48198 
 1                     1.94835   1.1709    1.05447 
 1                     2.864     0.93286  -0.46566 
 1                     0.87101   1.84294  -1.4781 
 1                     0.94287  -2.12563  -0.9992 
 1                    -1.92873   0.11294   1.26133 
 1                    -0.43331  -2.01813   1.11822 
 1                    -0.45911   2.20835   0.64129 
 1                    -1.54182   1.99308  -1.49433 
 1                    -0.39403   0.972     2.7128 
 1                    -1.77533  -0.91011  -1.10276 
 
                          Input orientation:                          
 ---------------------------------------------------------------------
 Center     Atomic      Atomic             Coordinates (Angstroms)
 Number     Number       Type             X           Y           Z
 ---------------------------------------------------------------------
      1          6           0        1.942589    0.690376    0.074391
      2          6           0        0.700191    1.030613   -0.766767
      3          6           0        0.727150   -1.169924   -0.514322
      4          6           0       -0.855414    0.101541    1.029496
      5          6           0       -0.549074   -1.251037    0.347084
      6          6           0       -0.573063    1.278531    0.063397
      7          8           0        0.528395   -0.185656   -1.517829
      8          8           0        1.854450   -0.739292    0.235682
      9          8           0       -1.719404    1.348357   -0.789346
     10          8           0       -0.083050    0.193704    2.222507
     11          8           0       -1.636413   -1.649588   -0.481979
     12          1           0        1.948346    1.170899    1.054468
     13          1           0        2.864004    0.932864   -0.465663
     14          1           0        0.871010    1.842944   -1.478096
     15          1           0        0.942874   -2.125635   -0.999198
     16          1           0       -1.928732    0.112944    1.261328
     17          1           0       -0.433313   -2.018129    1.118223
     18          1           0       -0.459112    2.208348    0.641288
     19          1           0       -1.541815    1.993084   -1.494330
     20          1           0       -0.394030    0.972004    2.712795
     21          1           0       -1.775328   -0.910111   -1.102764
 ---------------------------------------------------------------------
                    Distance matrix (angstroms):
                    1          2          3          4          5
     1  C    0.000000
     2  C    1.538461   0.000000
     3  C    2.298824   2.215134   0.000000
     4  C    3.014593   2.551400   2.550393   0.000000
     5  C    3.170462   2.829709   1.541865   1.545638   0.000000
     6  C    2.583515   1.540069   2.831827   1.548669   2.545539
     7  O    2.302725   1.439763   1.419617   2.913121   2.402889
     8  O    1.441435   2.338756   1.420829   2.946269   2.459923
     9  O    3.819578   2.440474   3.521790   2.368378   3.068875
    10  O    2.994044   3.201506   3.163248   1.424189   2.412813
    11  O    4.312103   3.567114   2.411961   2.441510   1.424252
    12  H    1.091552   2.212344   3.071136   3.000870   3.550109
    13  H    1.095201   2.186848   2.998371   4.093980   4.132685
    14  H    2.210636   1.093183   3.166533   3.507284   3.862724
    15  H    3.175207   3.174086   1.093172   3.508526   2.191645
    16  H    4.090156   3.444782   3.442730   1.098129   2.144701
    17  H    3.751066   3.759368   2.175162   2.163109   1.093840
    18  H    2.897202   2.171097   3.762363   2.178623   3.473038
    19  H    4.037203   2.546034   4.014130   3.227813   3.860137
    20  H    3.535573   3.648028   4.032268   1.950404   3.250006
    21  H    4.215467   3.163463   2.583827   2.533025   1.929246
                    6          7          8          9         10
     6  C    0.000000
     7  O    2.420192   0.000000
     8  O    3.161346   2.267098   0.000000
     9  O    1.430435   2.817177   4.263964   0.000000
    10  O    2.465506   3.808923   2.927774   3.616924   0.000000
    11  O    3.162598   2.811134   3.678288   3.014803   3.622831
    12  H    2.711330   3.236235   2.080398   4.108957   2.538857
    13  H    3.494684   2.795212   2.075377   4.613571   4.056814
    14  H    2.186346   2.057713   3.251482   2.725663   4.162293
    15  H    3.874986   2.050436   2.068296   4.381824   4.100151
    16  H    2.152085   3.721606   4.011324   2.403191   2.082530
    17  H    3.464124   3.351359   2.765531   4.077509   2.496865
    18  H    1.100683   3.371678   3.769041   2.091563   2.588526
    19  H    1.968649   3.005533   4.689716   0.971706   4.379571
    20  H    2.673073   4.482100   3.757697   3.763409   0.971000
    21  H    2.755998   2.450358   3.872455   2.280797   3.890969
                   11         12         13         14         15
    11  O    0.000000
    12  H    4.813140   0.000000
    13  H    5.188745   1.790500   0.000000
    14  H    4.413298   2.833051   2.413564   0.000000
    15  H    2.673361   4.011939   3.651002   3.998015   0.000000
    16  H    2.496215   4.024151   5.159950   4.282044   4.285713
    17  H    2.035662   3.980737   4.699931   4.832185   2.527631
    18  H    4.187056   2.653841   3.727640   2.528741   4.841505
    19  H    3.781913   4.399271   4.646877   2.417546   4.835564
    20  H    4.315419   2.876862   4.551803   4.463455   5.016131
    21  H    0.975447   4.780167   5.032480   3.837094   2.979404
                   16         17         18         19         20
    16  H    0.000000
    17  H    2.607341   0.000000
    18  H    2.633429   4.253380   0.000000
    19  H    3.358315   4.913658   2.404048   0.000000
    20  H    2.280362   3.388967   2.413281   4.478830   0.000000
    21  H    2.580524   2.821611   3.807746   2.938774   4.473123
                   21
    21  H    0.000000
 Stoichiometry    C6H10O5
 Framework group  C1[X(C6H10O5)]
 Deg. of freedom    57
 Full point group                 C1      NOp   1
 Largest Abelian subgroup         C1      NOp   1
 Largest concise Abelian subgroup C1      NOp   1
                         Standard orientation:                         
 ---------------------------------------------------------------------
 Center     Atomic      Atomic             Coordinates (Angstroms)
 Number     Number       Type             X           Y           Z
 ---------------------------------------------------------------------
      1          6           0       -1.942589   -0.690376    0.074391
      2          6           0       -0.700191   -1.030613   -0.766767
      3          6           0       -0.727150    1.169924   -0.514322
      4          6           0        0.855414   -0.101541    1.029496
      5          6           0        0.549074    1.251037    0.347084
      6          6           0        0.573063   -1.278531    0.063397
      7          8           0       -0.528395    0.185656   -1.517829
      8          8           0       -1.854450    0.739292    0.235682
      9          8           0        1.719404   -1.348357   -0.789346
     10          8           0        0.083050   -0.193704    2.222507
     11          8           0        1.636413    1.649588   -0.481979
     12          1           0       -1.948346   -1.170899    1.054468
     13          1           0       -2.864004   -0.932864   -0.465663
     14          1           0       -0.871010   -1.842944   -1.478096
     15          1           0       -0.942874    2.125635   -0.999198
     16          1           0        1.928732   -0.112944    1.261328
     17          1           0        0.433313    2.018129    1.118223
     18          1           0        0.459112   -2.208348    0.641288
     19          1           0        1.541815   -1.993084   -1.494330
     20          1           0        0.394030   -0.972004    2.712795
     21          1           0        1.775328    0.910111   -1.102764
 ---------------------------------------------------------------------
 Rotational constants (GHZ):      1.4260477      1.2006887      1.1805723
 Standard basis: 6-31+G(d,p) (6D, 7F)
 There are   259 symmetry adapted basis functions of A   symmetry.
 Integral buffers will be    131072 words long.
 Raffenetti 2 integral format.
 Two-electron integral symmetry is turned on.
   259 basis functions,   422 primitive gaussians,   259 cartesian basis functions
    43 alpha electrons       43 beta electrons
       nuclear repulsion energy       737.1410111200 Hartrees.
 NAtoms=   21 NActive=   21 NUniq=   21 SFac= 1.00D+00 NAtFMM=   60 NAOKFM=F Big=F
 ------------------------------------------------------------------------------
 Polarizable Continuum Model (PCM)
 =================================
 Model                : C-PCM.
 Atomic radii         : SMD-Coulomb.
 Polarization charges : Total charges.
 Charge compensation  : None.
 Solution method      : Matrix inversion.
 Cavity type          : VdW (van der Waals Surface) (Alpha=1.000).
 Cavity algorithm     : GePol (No added spheres)
                        Default sphere list used, NSphG=   21.
                        Lebedev-Laikov grids with approx.  5.0 points / Ang**2.
                        Smoothing algorithm: Karplus/York (Gamma=1.0000).
                        Polarization charges: spherical gaussians, with
                                              point-specific exponents (IZeta= 3).
                        Self-potential: point-specific (ISelfS= 7).
                        Self-field    : sphere-specific E.n sum rule (ISelfD= 2).
 Solvent              : Water, Eps=  78.355300 Eps(inf)=   1.777849
 ------------------------------------------------------------------------------
 ------------------------------------------------------------------------------
 Atomic radii for non-electrostatic terms: SMD-CDS.
 ------------------------------------------------------------------------------
 Nuclear repulsion after PCM non-electrostatic terms =      737.1460681959 Hartrees.
 One-electron integrals computed using PRISM.
 NBasis=   259 RedAO= T  NBF=   259
 NBsUse=   259 1.00D-06 NBFU=   259
 Harris functional with IExCor=  402 diagonalized for initial guess.
 ExpMin= 4.38D-02 ExpMax= 5.48D+03 ExpMxC= 8.25D+02 IAcc=2 IRadAn=         4 AccDes= 0.00D+00
 HarFok:  IExCor=  402 AccDes= 0.00D+00 IRadAn=         4 IDoV= 1
 ScaDFX=  1.000000  1.000000  1.000000  1.000000
 FoFCou: FMM=F IPFlag=           0 FMFlag=      100000 FMFlg1=           0
         NFxFlg=           0 DoJE=T BraDBF=F KetDBF=T FulRan=T
         Omega=  0.000000  0.000000  1.000000  0.000000  0.000000 ICntrl=     500 IOpCl=  0
         NMat0=    1 NMatS0=    1 NMatT0=    0 NMatD0=    1 NMtDS0=    0 NMtDT0=    0
         I1Cent=           4 NGrid=           0.
 Petite list used in FoFCou.
 Initial guess orbital symmetries:
       Occupied  (A) (A) (A) (A) (A) (A) (A) (A) (A) (A) (A) (A)
                 (A) (A) (A) (A) (A) (A) (A) (A) (A) (A) (A) (A)
                 (A) (A) (A) (A) (A) (A) (A) (A) (A) (A) (A) (A)
                 (A) (A) (A) (A) (A) (A) (A)
       Virtual   (A) (A) (A) (A) (A) (A) (A) (A) (A) (A) (A) (A)
                 (A) (A) (A) (A) (A) (A) (A) (A) (A) (A) (A) (A)
                 (A) (A) (A) (A) (A) (A) (A) (A) (A) (A) (A) (A)
                 (A) (A) (A) (A) (A) (A) (A) (A) (A) (A) (A) (A)
                 (A) (A) (A) (A) (A) (A) (A) (A) (A) (A) (A) (A)
                 (A) (A) (A) (A) (A) (A) (A) (A) (A) (A) (A) (A)
                 (A) (A) (A) (A) (A) (A) (A) (A) (A) (A) (A) (A)
                 (A) (A) (A) (A) (A) (A) (A) (A) (A) (A) (A) (A)
                 (A) (A) (A) (A) (A) (A) (A) (A) (A) (A) (A) (A)
                 (A) (A) (A) (A) (A) (A) (A) (A) (A) (A) (A) (A)
                 (A) (A) (A) (A) (A) (A) (A) (A) (A) (A) (A) (A)
                 (A) (A) (A) (A) (A) (A) (A) (A) (A) (A) (A) (A)
                 (A) (A) (A) (A) (A) (A) (A) (A) (A) (A) (A) (A)
                 (A) (A) (A) (A) (A) (A) (A) (A) (A) (A) (A) (A)
                 (A) (A) (A) (A) (A) (A) (A) (A) (A) (A) (A) (A)
                 (A) (A) (A) (A) (A) (A) (A) (A) (A) (A) (A) (A)
                 (A) (A) (A) (A) (A) (A) (A) (A) (A) (A) (A) (A)
                 (A) (A) (A) (A) (A) (A) (A) (A) (A) (A) (A) (A)
 The electronic state of the initial guess is 1-A.
 Requested convergence on RMS density matrix=1.00D-08 within 128 cycles.
 Requested convergence on MAX density matrix=1.00D-06.
 Requested convergence on             energy=1.00D-06.
 No special actions if energy rises.
 Error on total polarization charges =  0.05645
 SCF Done:  E(RB3LYP) =  -610.805114516     A.U. after   12 cycles
             Convg  =    0.6313D-08             -V/T =  2.0090
 SMD-CDS (non-electrostatic) energy       (kcal/mol) =       3.17
 (included in total energy above)

 **********************************************************************

            Population analysis using the SCF density.

 **********************************************************************

 Orbital symmetries:
       Occupied  (A) (A) (A) (A) (A) (A) (A) (A) (A) (A) (A) (A)
                 (A) (A) (A) (A) (A) (A) (A) (A) (A) (A) (A) (A)
                 (A) (A) (A) (A) (A) (A) (A) (A) (A) (A) (A) (A)
                 (A) (A) (A) (A) (A) (A) (A)
       Virtual   (A) (A) (A) (A) (A) (A) (A) (A) (A) (A) (A) (A)
                 (A) (A) (A) (A) (A) (A) (A) (A) (A) (A) (A) (A)
                 (A) (A) (A) (A) (A) (A) (A) (A) (A) (A) (A) (A)
                 (A) (A) (A) (A) (A) (A) (A) (A) (A) (A) (A) (A)
                 (A) (A) (A) (A) (A) (A) (A) (A) (A) (A) (A) (A)
                 (A) (A) (A) (A) (A) (A) (A) (A) (A) (A) (A) (A)
                 (A) (A) (A) (A) (A) (A) (A) (A) (A) (A) (A) (A)
                 (A) (A) (A) (A) (A) (A) (A) (A) (A) (A) (A) (A)
                 (A) (A) (A) (A) (A) (A) (A) (A) (A) (A) (A) (A)
                 (A) (A) (A) (A) (A) (A) (A) (A) (A) (A) (A) (A)
                 (A) (A) (A) (A) (A) (A) (A) (A) (A) (A) (A) (A)
                 (A) (A) (A) (A) (A) (A) (A) (A) (A) (A) (A) (A)
                 (A) (A) (A) (A) (A) (A) (A) (A) (A) (A) (A) (A)
                 (A) (A) (A) (A) (A) (A) (A) (A) (A) (A) (A) (A)
                 (A) (A) (A) (A) (A) (A) (A) (A) (A) (A) (A) (A)
                 (A) (A) (A) (A) (A) (A) (A) (A) (A) (A) (A) (A)
                 (A) (A) (A) (A) (A) (A) (A) (A) (A) (A) (A) (A)
                 (A) (A) (A) (A) (A) (A) (A) (A) (A) (A) (A) (A)
 The electronic state is 1-A.
 Alpha  occ. eigenvalues --  -19.18196 -19.17545 -19.17272 -19.16933 -19.16920
 Alpha  occ. eigenvalues --  -10.29165 -10.25004 -10.24804 -10.24757 -10.24484
 Alpha  occ. eigenvalues --  -10.23893  -1.11213  -1.04748  -1.03477  -1.03371
 Alpha  occ. eigenvalues --   -1.00960  -0.79155  -0.77635  -0.67946  -0.65919
 Alpha  occ. eigenvalues --   -0.62870  -0.58112  -0.55469  -0.53864  -0.52112
 Alpha  occ. eigenvalues --   -0.50082  -0.47544  -0.46307  -0.45759  -0.44232
 Alpha  occ. eigenvalues --   -0.43267  -0.42577  -0.40126  -0.38750  -0.38124
 Alpha  occ. eigenvalues --   -0.36228  -0.35335  -0.33766  -0.31640  -0.30657
 Alpha  occ. eigenvalues --   -0.28628  -0.27774  -0.26264
 Alpha virt. eigenvalues --    0.00734   0.01330   0.02543   0.02810   0.03913
 Alpha virt. eigenvalues --    0.04424   0.05276   0.05470   0.06232   0.08176
 Alpha virt. eigenvalues --    0.09004   0.09524   0.10247   0.10339   0.11553
 Alpha virt. eigenvalues --    0.12315   0.12828   0.13634   0.13931   0.14084
 Alpha virt. eigenvalues --    0.14773   0.16021   0.16721   0.17244   0.17527
 Alpha virt. eigenvalues --    0.17851   0.19222   0.19509   0.19994   0.20776
 Alpha virt. eigenvalues --    0.21137   0.22155   0.22562   0.23386   0.24221
 Alpha virt. eigenvalues --    0.24582   0.25394   0.25417   0.26104   0.26851
 Alpha virt. eigenvalues --    0.27247   0.27934   0.28838   0.29569   0.30516
 Alpha virt. eigenvalues --    0.30635   0.31426   0.31863   0.32646   0.33016
 Alpha virt. eigenvalues --    0.34033   0.34404   0.35281   0.35353   0.36552
 Alpha virt. eigenvalues --    0.36926   0.38142   0.38352   0.39169   0.40057
 Alpha virt. eigenvalues --    0.42396   0.43428   0.44422   0.44913   0.46207
 Alpha virt. eigenvalues --    0.48603   0.63916   0.65620   0.66439   0.67263
 Alpha virt. eigenvalues --    0.69421   0.70767   0.72828   0.75692   0.76627
 Alpha virt. eigenvalues --    0.78915   0.79975   0.81781   0.83570   0.86071
 Alpha virt. eigenvalues --    0.87327   0.92307   0.95042   0.97230   0.98890
 Alpha virt. eigenvalues --    0.99984   1.02580   1.04134   1.04933   1.06541
 Alpha virt. eigenvalues --    1.07361   1.07726   1.10766   1.11263   1.13746
 Alpha virt. eigenvalues --    1.17175   1.19936   1.22081   1.24558   1.25104
 Alpha virt. eigenvalues --    1.28138   1.28679   1.29245   1.30860   1.31524
 Alpha virt. eigenvalues --    1.33710   1.35382   1.36844   1.37893   1.41134
 Alpha virt. eigenvalues --    1.43379   1.44497   1.46300   1.46841   1.49785
 Alpha virt. eigenvalues --    1.51442   1.55314   1.56505   1.58936   1.60390
 Alpha virt. eigenvalues --    1.60844   1.66229   1.66442   1.68606   1.69785
 Alpha virt. eigenvalues --    1.71694   1.73706   1.74788   1.77181   1.77481
 Alpha virt. eigenvalues --    1.79015   1.83754   1.84374   1.86628   1.88191
 Alpha virt. eigenvalues --    1.90103   1.93415   1.95276   1.96981   1.98838
 Alpha virt. eigenvalues --    2.01287   2.02525   2.03540   2.05844   2.06818
 Alpha virt. eigenvalues --    2.09982   2.10520   2.13074   2.15177   2.17919
 Alpha virt. eigenvalues --    2.20311   2.21523   2.24177   2.27176   2.28112
 Alpha virt. eigenvalues --    2.33960   2.35479   2.36720   2.39610   2.40993
 Alpha virt. eigenvalues --    2.44498   2.46776   2.48086   2.50468   2.51234
 Alpha virt. eigenvalues --    2.51942   2.56404   2.61161   2.61679   2.63907
 Alpha virt. eigenvalues --    2.64042   2.67552   2.67993   2.69153   2.71253
 Alpha virt. eigenvalues --    2.73144   2.73943   2.76194   2.77780   2.80410
 Alpha virt. eigenvalues --    2.82114   2.82734   2.87035   2.89126   2.90430
 Alpha virt. eigenvalues --    2.92295   2.95589   2.96400   2.98464   3.01443
 Alpha virt. eigenvalues --    3.04275   3.06244   3.12042   3.18372   3.22839
 Alpha virt. eigenvalues --    3.35527   3.39231   3.44422   3.46392   3.47330
 Alpha virt. eigenvalues --    3.48005   3.51341   3.55642   3.57453   3.60807
 Alpha virt. eigenvalues --    4.27773   4.33151   4.43491   4.47212   4.48399
 Alpha virt. eigenvalues --    4.53678   4.62121   4.81066   4.87986   4.96383
 Alpha virt. eigenvalues --    5.05708
          Condensed to atoms (all electrons):
              1          2          3          4          5          6
     1  C    5.638428  -0.318250  -0.405500  -0.372781   0.283642   0.240839
     2  C   -0.318250   7.197809  -0.535020   0.787056  -0.045059  -1.351402
     3  C   -0.405500  -0.535020   6.694478   0.143139  -1.049377   0.463699
     4  C   -0.372781   0.787056   0.143139   6.647644  -0.458997  -0.893507
     5  C    0.283642  -0.045059  -1.049377  -0.458997   6.912250  -0.196333
     6  C    0.240839  -1.351402   0.463699  -0.893507  -0.196333   7.263568
     7  O   -0.003656   0.074669   0.228817  -0.119332  -0.076041  -0.023640
     8  O    0.131845  -0.103069   0.350025   0.091283  -0.223746  -0.033243
     9  O    0.021985  -0.008464  -0.072349  -0.081115   0.072345   0.087333
    10  O    0.041735  -0.066628  -0.019345   0.168623  -0.085962  -0.001220
    11  O    0.000699  -0.005969  -0.137848  -0.051884   0.262590   0.006182
    12  H    0.481319  -0.180880   0.012873  -0.056156   0.014158   0.087694
    13  H    0.403993   0.001275  -0.024256   0.005529   0.008220  -0.017887
    14  H    0.007665   0.299090   0.021229  -0.007391  -0.008172   0.025972
    15  H    0.006538   0.050545   0.351496   0.038971  -0.040370  -0.043978
    16  H    0.002415  -0.006664  -0.003649   0.301065   0.005894   0.020226
    17  H    0.017329  -0.041362  -0.022001  -0.120343   0.423298   0.061201
    18  H    0.016150   0.018663  -0.031107  -0.031697   0.030313   0.298024
    19  H    0.009063  -0.048193   0.012851   0.013041  -0.018105   0.041652
    20  H   -0.007804   0.024864  -0.011640   0.059830   0.020331  -0.075156
    21  H    0.002015  -0.029402  -0.019449  -0.061919   0.033637   0.057451
              7          8          9         10         11         12
     1  C   -0.003656   0.131845   0.021985   0.041735   0.000699   0.481319
     2  C    0.074669  -0.103069  -0.008464  -0.066628  -0.005969  -0.180880
     3  C    0.228817   0.350025  -0.072349  -0.019345  -0.137848   0.012873
     4  C   -0.119332   0.091283  -0.081115   0.168623  -0.051884  -0.056156
     5  C   -0.076041  -0.223746   0.072345  -0.085962   0.262590   0.014158
     6  C   -0.023640  -0.033243   0.087333  -0.001220   0.006182   0.087694
     7  O    8.413911  -0.042301   0.009944   0.009664   0.011730   0.010147
     8  O   -0.042301   8.408594  -0.002089  -0.011962   0.006806  -0.043077
     9  O    0.009944  -0.002089   8.401024   0.007930  -0.010171  -0.000198
    10  O    0.009664  -0.011962   0.007930   8.348564   0.007712  -0.000152
    11  O    0.011730   0.006806  -0.010171   0.007712   8.270231  -0.000013
    12  H    0.010147  -0.043077  -0.000198  -0.000152  -0.000013   0.535142
    13  H   -0.000623  -0.051906  -0.000089   0.000616   0.000089  -0.040100
    14  H   -0.033507   0.006795  -0.010268  -0.000218   0.000121   0.002388
    15  H   -0.045379  -0.044112   0.001012  -0.000411   0.007043  -0.000260
    16  H   -0.000970  -0.000195  -0.000136  -0.031675  -0.003796  -0.000034
    17  H    0.010897   0.000132  -0.000985   0.006033  -0.049821   0.000039
    18  H    0.008720  -0.001347  -0.030605  -0.010126  -0.000431   0.000458
    19  H   -0.002525   0.000011   0.238116  -0.000400   0.000809   0.000012
    20  H   -0.000021   0.000482   0.000516   0.239210  -0.000555  -0.000388
    21  H    0.015532  -0.000548   0.003991   0.000540   0.254488   0.000000
             13         14         15         16         17         18
     1  C    0.403993   0.007665   0.006538   0.002415   0.017329   0.016150
     2  C    0.001275   0.299090   0.050545  -0.006664  -0.041362   0.018663
     3  C   -0.024256   0.021229   0.351496  -0.003649  -0.022001  -0.031107
     4  C    0.005529  -0.007391   0.038971   0.301065  -0.120343  -0.031697
     5  C    0.008220  -0.008172  -0.040370   0.005894   0.423298   0.030313
     6  C   -0.017887   0.025972  -0.043978   0.020226   0.061201   0.298024
     7  O   -0.000623  -0.033507  -0.045379  -0.000970   0.010897   0.008720
     8  O   -0.051906   0.006795  -0.044112  -0.000195   0.000132  -0.001347
     9  O   -0.000089  -0.010268   0.001012  -0.000136  -0.000985  -0.030605
    10  O    0.000616  -0.000218  -0.000411  -0.031675   0.006033  -0.010126
    11  O    0.000089   0.000121   0.007043  -0.003796  -0.049821  -0.000431
    12  H   -0.040100   0.002388  -0.000260  -0.000034   0.000039   0.000458
    13  H    0.554568  -0.004443   0.000299   0.000004  -0.000006   0.000004
    14  H   -0.004443   0.523087  -0.000050  -0.000146   0.000023  -0.002793
    15  H    0.000299  -0.000050   0.555132  -0.000149  -0.003279   0.000025
    16  H    0.000004  -0.000146  -0.000149   0.564746  -0.003118  -0.003660
    17  H   -0.000006   0.000023  -0.003279  -0.003118   0.542096  -0.000139
    18  H    0.000004  -0.002793   0.000025  -0.003660  -0.000139   0.575293
    19  H   -0.000013   0.004284  -0.000008   0.000118   0.000016  -0.004907
    20  H    0.000005  -0.000005   0.000010  -0.007833   0.000032   0.004349
    21  H    0.000000   0.000054  -0.000761  -0.001367   0.006002  -0.000068
             19         20         21
     1  C    0.009063  -0.007804   0.002015
     2  C   -0.048193   0.024864  -0.029402
     3  C    0.012851  -0.011640  -0.019449
     4  C    0.013041   0.059830  -0.061919
     5  C   -0.018105   0.020331   0.033637
     6  C    0.041652  -0.075156   0.057451
     7  O   -0.002525  -0.000021   0.015532
     8  O    0.000011   0.000482  -0.000548
     9  O    0.238116   0.000516   0.003991
    10  O   -0.000400   0.239210   0.000540
    11  O    0.000809  -0.000555   0.254488
    12  H    0.000012  -0.000388   0.000000
    13  H   -0.000013   0.000005   0.000000
    14  H    0.004284  -0.000005   0.000054
    15  H   -0.000008   0.000010  -0.000761
    16  H    0.000118  -0.007833  -0.001367
    17  H    0.000016   0.000032   0.006002
    18  H   -0.004907   0.004349  -0.000068
    19  H    0.343246  -0.000022   0.000088
    20  H   -0.000022   0.338450  -0.000006
    21  H    0.000088  -0.000006   0.335357
 Mulliken atomic charges:
              1
     1  C   -0.197667
     2  C    0.286391
     3  C    0.052934
     4  C   -0.001060
     5  C    0.135486
     6  C   -0.017474
     7  O   -0.446039
     8  O   -0.438377
     9  O   -0.627726
    10  O   -0.602527
    11  O   -0.568012
    12  H    0.177029
    13  H    0.164724
    14  H    0.176284
    15  H    0.167686
    16  H    0.168925
    17  H    0.173959
    18  H    0.164881
    19  H    0.410867
    20  H    0.415351
    21  H    0.404365
 Sum of Mulliken atomic charges =   0.00000
 Mulliken charges with hydrogens summed into heavy atoms:
              1
     1  C    0.144086
     2  C    0.462675
     3  C    0.220619
     4  C    0.167865
     5  C    0.309445
     6  C    0.147407
     7  O   -0.446039
     8  O   -0.438377
     9  O   -0.216859
    10  O   -0.187176
    11  O   -0.163647
 Sum of Mulliken charges with hydrogens summed into heavy atoms =   0.00000
 Electronic spatial extent (au):  <R**2>=           1337.5027
 Charge=              0.0000 electrons
 Dipole moment (field-independent basis, Debye):
    X=             -0.5641    Y=             -7.0919    Z=              0.1183  Tot=              7.1153
 Quadrupole moment (field-independent basis, Debye-Ang):
   XX=            -72.8077   YY=            -57.5506   ZZ=            -63.6803
   XY=             -0.8737   XZ=              3.5561   YZ=             -0.1279
 Traceless Quadrupole moment (field-independent basis, Debye-Ang):
   XX=             -8.1282   YY=              7.1290   ZZ=              0.9992
   XY=             -0.8737   XZ=              3.5561   YZ=             -0.1279
 Octapole moment (field-independent basis, Debye-Ang**2):
  XXX=             -8.9896  YYY=            -24.7710  ZZZ=              5.2630  XYY=             -9.1424
  XXY=            -18.2369  XXZ=             -2.8406  XZZ=             16.1178  YZZ=            -23.8274
  YYZ=             -2.9005  XYZ=              4.4762
 Hexadecapole moment (field-independent basis, Debye-Ang**3):
 XXXX=           -707.3366 YYYY=           -487.8310 ZZZZ=           -451.4103 XXXY=             14.6506
 XXXZ=              4.4647 YYYX=            -42.3565 YYYZ=             23.1924 ZZZX=             -3.7664
 ZZZY=            -24.4706 XXYY=           -220.8121 XXZZ=           -174.9851 YYZZ=           -124.8515
 XXYZ=              1.6989 YYXZ=              3.0300 ZZXY=            -13.6038
 N-N= 7.371460681959D+02 E-N=-2.904674833107D+03  KE= 6.053545798928D+02

 Test job not archived.
 1\1\GINC-COMPUTE-10-3\SP\RB3LYP\6-31+G(d,p)\C6H10O5\ASAROTTI.IQUIR\15-
 Apr-2019\0\\# B3LYP/6-31+G** test scrf=(pcm,solvent=water,smd,dovacuum
 )\\comment\\0,1\C,0,1.942589,0.690376,0.074391\C,0,0.700191,1.030613,-
 0.766767\C,0,0.72715,-1.169924,-0.514322\C,0,-0.855414,0.101541,1.0294
 96\C,0,-0.549074,-1.251037,0.347084\C,0,-0.573063,1.278531,0.063397\O,
 0,0.528395,-0.185656,-1.517829\O,0,1.85445,-0.739292,0.235682\O,0,-1.7
 19404,1.348357,-0.789346\O,0,-0.08305,0.193704,2.222507\O,0,-1.636413,
 -1.649588,-0.481979\H,0,1.948346,1.170899,1.054468\H,0,2.864004,0.9328
 64,-0.465663\H,0,0.87101,1.842944,-1.478096\H,0,0.942874,-2.125635,-0.
 999198\H,0,-1.928732,0.112944,1.261328\H,0,-0.433313,-2.018129,1.11822
 3\H,0,-0.459112,2.208348,0.641288\H,0,-1.541815,1.993084,-1.49433\H,0,
 -0.39403,0.972004,2.712795\H,0,-1.775328,-0.910111,-1.102764\\Version=
 EM64L-G09RevC.01\State=1-A\HF=-610.8051145\RMSD=6.313e-09\Dipole=0.221
 9225,2.7901636,0.0465257\Quadrupole=-6.0430908,5.3002026,0.7428882,-0.
 6495402,-2.6438554,0.0951086\PG=C01 [X(C6H10O5)]\\@


 Everywhere is walking distance if you have the time.
                                    -- Steven Wright
 Job cpu time:  0 days  0 hours  8 minutes  0.9 seconds.
 File lengths (MBytes):  RWF=     56 Int=      0 D2E=      0 Chk=      4 Scr=      1
 Normal termination of Gaussian 09 at Mon Apr 15 18:01:46 2019.
