 Entering Gaussian System, Link 0=g09
 Input=/home/asarotti.iquir/SCF3/01_RSR_Levo13_OPTB_energy_b3lyp_smd.gjc
 Output=/home/asarotti.iquir/SCF3/01_RSR_Levo13_OPTB_energy_b3lyp_smd.log
 Initial command:
 /share/apps/Gaussian09/EM64T.SSE4.2-enabled/g09/l1.exe /tmp/Gau-9205.inp -scrdir=/tmp/
 Entering Link 1 = /share/apps/Gaussian09/EM64T.SSE4.2-enabled/g09/l1.exe PID=      9208.
  
 Copyright (c) 1988,1990,1992,1993,1995,1998,2003,2009,2011,
            Gaussian, Inc.  All Rights Reserved.
  
 This is part of the Gaussian(R) 09 program.  It is based on
 the Gaussian(R) 03 system (copyright 2003, Gaussian, Inc.),
 the Gaussian(R) 98 system (copyright 1998, Gaussian, Inc.),
 the Gaussian(R) 94 system (copyright 1995, Gaussian, Inc.),
 the Gaussian 92(TM) system (copyright 1992, Gaussian, Inc.),
 the Gaussian 90(TM) system (copyright 1990, Gaussian, Inc.),
 the Gaussian 88(TM) system (copyright 1988, Gaussian, Inc.),
 the Gaussian 86(TM) system (copyright 1986, Carnegie Mellon
 University), and the Gaussian 82(TM) system (copyright 1983,
 Carnegie Mellon University). Gaussian is a federally registered
 trademark of Gaussian, Inc.
  
 This software contains proprietary and confidential information,
 including trade secrets, belonging to Gaussian, Inc.
  
 This software is provided under written license and may be
 used, copied, transmitted, or stored only in accord with that
 written license.
  
 The following legend is applicable only to US Government
 contracts under FAR:
  
                    RESTRICTED RIGHTS LEGEND
  
 Use, reproduction and disclosure by the US Government is
 subject to restrictions as set forth in subparagraphs (a)
 and (c) of the Commercial Computer Software - Restricted
 Rights clause in FAR 52.227-19.
  
 Gaussian, Inc.
 340 Quinnipiac St., Bldg. 40, Wallingford CT 06492
  
  
 ---------------------------------------------------------------
 Warning -- This program may not be used in any manner that
 competes with the business of Gaussian, Inc. or will provide
 assistance to any competitor of Gaussian, Inc.  The licensee
 of this program is prohibited from giving any competitor of
 Gaussian, Inc. access to this program.  By using this program,
 the user acknowledges that Gaussian, Inc. is engaged in the
 business of creating and licensing software in the field of
 computational chemistry and represents and warrants to the
 licensee that it is not a competitor of Gaussian, Inc. and that
 it will not use this program in any manner prohibited above.
 ---------------------------------------------------------------
  

 Cite this work as:
 Gaussian 09, Revision C.01,
 M. J. Frisch, G. W. Trucks, H. B. Schlegel, G. E. Scuseria, 
 M. A. Robb, J. R. Cheeseman, G. Scalmani, V. Barone, B. Mennucci, 
 G. A. Petersson, H. Nakatsuji, M. Caricato, X. Li, H. P. Hratchian, 
 A. F. Izmaylov, J. Bloino, G. Zheng, J. L. Sonnenberg, M. Hada, 
 M. Ehara, K. Toyota, R. Fukuda, J. Hasegawa, M. Ishida, T. Nakajima, 
 Y. Honda, O. Kitao, H. Nakai, T. Vreven, J. A. Montgomery, Jr., 
 J. E. Peralta, F. Ogliaro, M. Bearpark, J. J. Heyd, E. Brothers, 
 K. N. Kudin, V. N. Staroverov, T. Keith, R. Kobayashi, J. Normand, 
 K. Raghavachari, A. Rendell, J. C. Burant, S. S. Iyengar, J. Tomasi, 
 M. Cossi, N. Rega, J. M. Millam, M. Klene, J. E. Knox, J. B. Cross, 
 V. Bakken, C. Adamo, J. Jaramillo, R. Gomperts, R. E. Stratmann, 
 O. Yazyev, A. J. Austin, R. Cammi, C. Pomelli, J. W. Ochterski, 
 R. L. Martin, K. Morokuma, V. G. Zakrzewski, G. A. Voth, 
 P. Salvador, J. J. Dannenberg, S. Dapprich, A. D. Daniels, 
 O. Farkas, J. B. Foresman, J. V. Ortiz, J. Cioslowski, 
 and D. J. Fox, Gaussian, Inc., Wallingford CT, 2010.
 
 ******************************************
 Gaussian 09:  EM64L-G09RevC.01 23-Sep-2011
                16-Apr-2019 
 ******************************************
 %nprocshared=4
 Will use up to    4 processors via shared memory.
 -----------------------------------------------------------
 # B3LYP/6-31+G** test scrf=(pcm,solvent=water,smd,dovacuum)
 -----------------------------------------------------------
 1/38=1/1;
 2/12=2,17=6,18=5,40=1/2;
 3/5=1,6=6,7=111,11=2,16=1,25=1,30=1,70=32101,72=1,74=-5/1,2,3;
 4//1;
 5/5=2,38=5,53=1/2;
 6/7=2,8=2,9=2,10=2,28=1/1;
 99/5=1,9=1/99;
 -------
 comment
 -------
 Charge =  0 Multiplicity = 1
 Symbolic Z-Matrix:
 6                     2.00458   0.50769   0.1214 
 6                     0.81728   1.0137   -0.71248 
 6                     0.6133   -1.18791  -0.5598 
 6                    -0.86062   0.18013   1.01616 
 6                    -0.65634  -1.18743   0.3189 
 6                    -0.45918   1.34442   0.08018 
 8                     0.52787  -0.15047  -1.51869 
 8                     1.76813  -0.91331   0.22 
 8                    -1.51433   1.63245  -0.83135 
 8                    -0.09829   0.30845   2.21104 
 8                    -1.81604  -1.38198  -0.49312 
 1                     2.0488    0.94057   1.12191 
 1                     2.95274   0.67341  -0.40102 
 1                     1.07014   1.83337  -1.38728 
 1                     0.74311  -2.13842  -1.08825 
 1                    -1.93402   0.28048   1.22806 
 1                    -0.5687   -1.97948   1.0778 
 1                    -0.30939   2.24318   0.68653 
 1                    -1.66449   0.80562  -1.32538 
 1                    -0.32323  -0.43588   2.7924 
 1                    -1.70784  -2.2075   -0.99401 
 
                          Input orientation:                          
 ---------------------------------------------------------------------
 Center     Atomic      Atomic             Coordinates (Angstroms)
 Number     Number       Type             X           Y           Z
 ---------------------------------------------------------------------
      1          6           0        2.004576    0.507686    0.121398
      2          6           0        0.817284    1.013698   -0.712478
      3          6           0        0.613298   -1.187913   -0.559804
      4          6           0       -0.860622    0.180128    1.016162
      5          6           0       -0.656340   -1.187430    0.318900
      6          6           0       -0.459181    1.344424    0.080178
      7          8           0        0.527871   -0.150473   -1.518688
      8          8           0        1.768126   -0.913306    0.220004
      9          8           0       -1.514326    1.632445   -0.831349
     10          8           0       -0.098285    0.308445    2.211040
     11          8           0       -1.816037   -1.381975   -0.493119
     12          1           0        2.048802    0.940569    1.121909
     13          1           0        2.952739    0.673409   -0.401024
     14          1           0        1.070138    1.833365   -1.387281
     15          1           0        0.743106   -2.138419   -1.088251
     16          1           0       -1.934021    0.280484    1.228060
     17          1           0       -0.568695   -1.979480    1.077796
     18          1           0       -0.309385    2.243183    0.686533
     19          1           0       -1.664485    0.805619   -1.325375
     20          1           0       -0.323229   -0.435876    2.792401
     21          1           0       -1.707839   -2.207503   -0.994006
 ---------------------------------------------------------------------
                    Distance matrix (angstroms):
                    1          2          3          4          5
     1  C    0.000000
     2  C    1.536574   0.000000
     3  C    2.296682   2.216306   0.000000
     4  C    3.019479   2.549197   2.554926   0.000000
     5  C    3.161155   2.842582   1.544054   1.548587   0.000000
     6  C    2.602293   1.538521   2.823565   1.546870   2.550715
     7  O    2.302979   1.445347   1.415287   2.909068   2.419580
     8  O    1.443901   2.342428   1.420260   2.956312   2.441917
     9  O    3.815165   2.415240   3.543295   2.439232   3.164002
    10  O    2.971250   3.143661   3.228469   1.423150   2.475734
    11  O    4.306453   3.566756   2.437986   2.372954   1.429028
    12  H    1.091039   2.210647   3.069082   3.009020   3.534260
    13  H    1.095172   2.184712   2.993779   4.097983   4.123889
    14  H    2.215110   1.091397   3.165682   3.498223   3.875175
    15  H    3.171187   3.175303   1.095248   3.517976   2.200660
    16  H    4.097422   3.445718   3.441145   1.098707   2.147979
    17  H    3.704378   3.753017   2.169198   2.180121   1.100431
    18  H    2.947158   2.176752   3.765252   2.160721   3.467656
    19  H    3.955240   2.564784   3.122269   2.553474   2.773489
    20  H    3.666503   3.960582   3.560888   1.955320   2.606531
    21  H    4.732695   4.102638   2.572114   3.234089   1.967212
                    6          7          8          9         10
     6  C    0.000000
     7  O    2.401117   0.000000
     8  O    3.174554   2.267862   0.000000
     9  O    1.423787   2.796748   4.284937   0.000000
    10  O    2.396679   3.809665   2.990048   3.607531   0.000000
    11  O    3.098867   2.839418   3.684348   3.048304   3.622246
    12  H    2.745593   3.236720   2.080640   4.121867   2.489130
    13  H    3.510415   2.794269   2.075247   4.589074   4.032967
    14  H    2.175159   2.060809   3.258029   2.651204   4.079033
    15  H    3.865348   2.045368   2.064727   4.402433   4.192899
    16  H    2.150524   3.713659   4.018358   2.499021   2.082536
    17  H    3.472114   3.359978   2.708000   4.193454   2.596176
    18  H    1.094474   3.360593   3.807509   2.031957   2.472225
    19  H    1.928380   2.399564   4.138323   0.974808   3.899538
    20  H    3.247169   4.403557   3.349467   4.339151   0.970873
    21  H    3.915253   3.083028   3.902704   3.848260   4.380979
                   11         12         13         14         15
    11  O    0.000000
    12  H    4.789520   0.000000
    13  H    5.193680   1.791034   0.000000
    14  H    4.412249   2.837411   2.421237   0.000000
    15  H    2.734155   4.008718   3.641584   3.996428   0.000000
    16  H    2.395860   4.038547   5.166113   4.275093   4.287586
    17  H    2.093000   3.921724   4.650293   4.827024   2.537290
    18  H    4.099189   2.728993   3.780003   2.524230   4.843143
    19  H    2.345461   4.449260   4.710697   2.922030   3.810523
    20  H    3.730713   3.211180   4.707488   4.955872   4.369804
    21  H    0.971643   5.338521   5.511104   4.919394   2.453729
                   16         17         18         19         20
    16  H    0.000000
    17  H    2.644642   0.000000
    18  H    2.604780   4.248672   0.000000
    19  H    2.620772   3.838328   2.819691   0.000000
    20  H    2.356902   2.320094   3.407672   4.505148   0.000000
    21  H    3.343473   2.375291   4.958678   3.031598   4.403713
                   21
    21  H    0.000000
 Stoichiometry    C6H10O5
 Framework group  C1[X(C6H10O5)]
 Deg. of freedom    57
 Full point group                 C1      NOp   1
 Largest Abelian subgroup         C1      NOp   1
 Largest concise Abelian subgroup C1      NOp   1
                         Standard orientation:                         
 ---------------------------------------------------------------------
 Center     Atomic      Atomic             Coordinates (Angstroms)
 Number     Number       Type             X           Y           Z
 ---------------------------------------------------------------------
      1          6           0        2.004576    0.507687    0.121398
      2          6           0        0.817284    1.013698   -0.712478
      3          6           0        0.613298   -1.187913   -0.559804
      4          6           0       -0.860622    0.180128    1.016162
      5          6           0       -0.656340   -1.187430    0.318900
      6          6           0       -0.459182    1.344424    0.080178
      7          8           0        0.527871   -0.150473   -1.518688
      8          8           0        1.768126   -0.913305    0.220004
      9          8           0       -1.514327    1.632445   -0.831349
     10          8           0       -0.098285    0.308445    2.211040
     11          8           0       -1.816037   -1.381975   -0.493119
     12          1           0        2.048802    0.940570    1.121909
     13          1           0        2.952739    0.673410   -0.401024
     14          1           0        1.070137    1.833365   -1.387281
     15          1           0        0.743106   -2.138419   -1.088251
     16          1           0       -1.934021    0.280484    1.228060
     17          1           0       -0.568695   -1.979480    1.077796
     18          1           0       -0.309386    2.243183    0.686533
     19          1           0       -1.664485    0.805619   -1.325375
     20          1           0       -0.323229   -0.435876    2.792401
     21          1           0       -1.707839   -2.207503   -0.994006
 ---------------------------------------------------------------------
 Rotational constants (GHZ):      1.4192976      1.2041237      1.1749687
 Standard basis: 6-31+G(d,p) (6D, 7F)
 There are   259 symmetry adapted basis functions of A   symmetry.
 Integral buffers will be    131072 words long.
 Raffenetti 2 integral format.
 Two-electron integral symmetry is turned on.
   259 basis functions,   422 primitive gaussians,   259 cartesian basis functions
    43 alpha electrons       43 beta electrons
       nuclear repulsion energy       736.7390120282 Hartrees.
 NAtoms=   21 NActive=   21 NUniq=   21 SFac= 1.00D+00 NAtFMM=   60 NAOKFM=F Big=F
 ------------------------------------------------------------------------------
 Polarizable Continuum Model (PCM)
 =================================
 Model                : C-PCM.
 Atomic radii         : SMD-Coulomb.
 Polarization charges : Total charges.
 Charge compensation  : None.
 Solution method      : Matrix inversion.
 Cavity type          : VdW (van der Waals Surface) (Alpha=1.000).
 Cavity algorithm     : GePol (No added spheres)
                        Default sphere list used, NSphG=   21.
                        Lebedev-Laikov grids with approx.  5.0 points / Ang**2.
                        Smoothing algorithm: Karplus/York (Gamma=1.0000).
                        Polarization charges: spherical gaussians, with
                                              point-specific exponents (IZeta= 3).
                        Self-potential: point-specific (ISelfS= 7).
                        Self-field    : sphere-specific E.n sum rule (ISelfD= 2).
 Solvent              : Water, Eps=  78.355300 Eps(inf)=   1.777849
 ------------------------------------------------------------------------------
 ------------------------------------------------------------------------------
 Atomic radii for non-electrostatic terms: SMD-CDS.
 ------------------------------------------------------------------------------
 Nuclear repulsion after PCM non-electrostatic terms =      736.7440169780 Hartrees.
 One-electron integrals computed using PRISM.
 NBasis=   259 RedAO= T  NBF=   259
 NBsUse=   259 1.00D-06 NBFU=   259
 Harris functional with IExCor=  402 diagonalized for initial guess.
 ExpMin= 4.38D-02 ExpMax= 5.48D+03 ExpMxC= 8.25D+02 IAcc=2 IRadAn=         4 AccDes= 0.00D+00
 HarFok:  IExCor=  402 AccDes= 0.00D+00 IRadAn=         4 IDoV= 1
 ScaDFX=  1.000000  1.000000  1.000000  1.000000
 FoFCou: FMM=F IPFlag=           0 FMFlag=      100000 FMFlg1=           0
         NFxFlg=           0 DoJE=T BraDBF=F KetDBF=T FulRan=T
         Omega=  0.000000  0.000000  1.000000  0.000000  0.000000 ICntrl=     500 IOpCl=  0
         NMat0=    1 NMatS0=    1 NMatT0=    0 NMatD0=    1 NMtDS0=    0 NMtDT0=    0
         I1Cent=           4 NGrid=           0.
 Petite list used in FoFCou.
 Initial guess orbital symmetries:
       Occupied  (A) (A) (A) (A) (A) (A) (A) (A) (A) (A) (A) (A)
                 (A) (A) (A) (A) (A) (A) (A) (A) (A) (A) (A) (A)
                 (A) (A) (A) (A) (A) (A) (A) (A) (A) (A) (A) (A)
                 (A) (A) (A) (A) (A) (A) (A)
       Virtual   (A) (A) (A) (A) (A) (A) (A) (A) (A) (A) (A) (A)
                 (A) (A) (A) (A) (A) (A) (A) (A) (A) (A) (A) (A)
                 (A) (A) (A) (A) (A) (A) (A) (A) (A) (A) (A) (A)
                 (A) (A) (A) (A) (A) (A) (A) (A) (A) (A) (A) (A)
                 (A) (A) (A) (A) (A) (A) (A) (A) (A) (A) (A) (A)
                 (A) (A) (A) (A) (A) (A) (A) (A) (A) (A) (A) (A)
                 (A) (A) (A) (A) (A) (A) (A) (A) (A) (A) (A) (A)
                 (A) (A) (A) (A) (A) (A) (A) (A) (A) (A) (A) (A)
                 (A) (A) (A) (A) (A) (A) (A) (A) (A) (A) (A) (A)
                 (A) (A) (A) (A) (A) (A) (A) (A) (A) (A) (A) (A)
                 (A) (A) (A) (A) (A) (A) (A) (A) (A) (A) (A) (A)
                 (A) (A) (A) (A) (A) (A) (A) (A) (A) (A) (A) (A)
                 (A) (A) (A) (A) (A) (A) (A) (A) (A) (A) (A) (A)
                 (A) (A) (A) (A) (A) (A) (A) (A) (A) (A) (A) (A)
                 (A) (A) (A) (A) (A) (A) (A) (A) (A) (A) (A) (A)
                 (A) (A) (A) (A) (A) (A) (A) (A) (A) (A) (A) (A)
                 (A) (A) (A) (A) (A) (A) (A) (A) (A) (A) (A) (A)
                 (A) (A) (A) (A) (A) (A) (A) (A) (A) (A) (A) (A)
 The electronic state of the initial guess is 1-A.
 Requested convergence on RMS density matrix=1.00D-08 within 128 cycles.
 Requested convergence on MAX density matrix=1.00D-06.
 Requested convergence on             energy=1.00D-06.
 No special actions if energy rises.
 Error on total polarization charges =  0.05638
 SCF Done:  E(RB3LYP) =  -610.804826047     A.U. after   12 cycles
             Convg  =    0.5997D-08             -V/T =  2.0090
 SMD-CDS (non-electrostatic) energy       (kcal/mol) =       3.14
 (included in total energy above)

 **********************************************************************

            Population analysis using the SCF density.

 **********************************************************************

 Orbital symmetries:
       Occupied  (A) (A) (A) (A) (A) (A) (A) (A) (A) (A) (A) (A)
                 (A) (A) (A) (A) (A) (A) (A) (A) (A) (A) (A) (A)
                 (A) (A) (A) (A) (A) (A) (A) (A) (A) (A) (A) (A)
                 (A) (A) (A) (A) (A) (A) (A)
       Virtual   (A) (A) (A) (A) (A) (A) (A) (A) (A) (A) (A) (A)
                 (A) (A) (A) (A) (A) (A) (A) (A) (A) (A) (A) (A)
                 (A) (A) (A) (A) (A) (A) (A) (A) (A) (A) (A) (A)
                 (A) (A) (A) (A) (A) (A) (A) (A) (A) (A) (A) (A)
                 (A) (A) (A) (A) (A) (A) (A) (A) (A) (A) (A) (A)
                 (A) (A) (A) (A) (A) (A) (A) (A) (A) (A) (A) (A)
                 (A) (A) (A) (A) (A) (A) (A) (A) (A) (A) (A) (A)
                 (A) (A) (A) (A) (A) (A) (A) (A) (A) (A) (A) (A)
                 (A) (A) (A) (A) (A) (A) (A) (A) (A) (A) (A) (A)
                 (A) (A) (A) (A) (A) (A) (A) (A) (A) (A) (A) (A)
                 (A) (A) (A) (A) (A) (A) (A) (A) (A) (A) (A) (A)
                 (A) (A) (A) (A) (A) (A) (A) (A) (A) (A) (A) (A)
                 (A) (A) (A) (A) (A) (A) (A) (A) (A) (A) (A) (A)
                 (A) (A) (A) (A) (A) (A) (A) (A) (A) (A) (A) (A)
                 (A) (A) (A) (A) (A) (A) (A) (A) (A) (A) (A) (A)
                 (A) (A) (A) (A) (A) (A) (A) (A) (A) (A) (A) (A)
                 (A) (A) (A) (A) (A) (A) (A) (A) (A) (A) (A) (A)
                 (A) (A) (A) (A) (A) (A) (A) (A) (A) (A) (A) (A)
 The electronic state is 1-A.
 Alpha  occ. eigenvalues --  -19.18251 -19.17578 -19.17405 -19.16934 -19.16803
 Alpha  occ. eigenvalues --  -10.29345 -10.24851 -10.24769 -10.24727 -10.24638
 Alpha  occ. eigenvalues --  -10.23864  -1.11236  -1.04762  -1.03573  -1.03408
 Alpha  occ. eigenvalues --   -1.00938  -0.79126  -0.77647  -0.67926  -0.65991
 Alpha  occ. eigenvalues --   -0.62966  -0.58164  -0.55394  -0.53888  -0.51979
 Alpha  occ. eigenvalues --   -0.50223  -0.47473  -0.46329  -0.45955  -0.44716
 Alpha  occ. eigenvalues --   -0.43334  -0.41533  -0.40221  -0.38864  -0.38259
 Alpha  occ. eigenvalues --   -0.36607  -0.35249  -0.33648  -0.31253  -0.30899
 Alpha  occ. eigenvalues --   -0.28965  -0.27663  -0.26231
 Alpha virt. eigenvalues --    0.00823   0.01330   0.02495   0.02854   0.03661
 Alpha virt. eigenvalues --    0.04561   0.05354   0.05520   0.06128   0.08187
 Alpha virt. eigenvalues --    0.08716   0.09498   0.10227   0.10382   0.11706
 Alpha virt. eigenvalues --    0.12353   0.12688   0.13637   0.13926   0.14004
 Alpha virt. eigenvalues --    0.15176   0.16073   0.16721   0.17162   0.17260
 Alpha virt. eigenvalues --    0.17974   0.19047   0.19619   0.19902   0.20747
 Alpha virt. eigenvalues --    0.21121   0.22515   0.22705   0.23103   0.23725
 Alpha virt. eigenvalues --    0.24674   0.24883   0.25772   0.26433   0.26803
 Alpha virt. eigenvalues --    0.27614   0.28259   0.29151   0.29398   0.29640
 Alpha virt. eigenvalues --    0.31131   0.31400   0.31443   0.31915   0.33245
 Alpha virt. eigenvalues --    0.34262   0.34419   0.35672   0.36038   0.36385
 Alpha virt. eigenvalues --    0.37371   0.37554   0.38313   0.38582   0.40573
 Alpha virt. eigenvalues --    0.41950   0.42367   0.43136   0.44934   0.46915
 Alpha virt. eigenvalues --    0.51284   0.63972   0.66028   0.66097   0.68012
 Alpha virt. eigenvalues --    0.69908   0.70633   0.71241   0.75391   0.76218
 Alpha virt. eigenvalues --    0.78821   0.80519   0.81775   0.83424   0.85728
 Alpha virt. eigenvalues --    0.87453   0.91836   0.94816   0.97819   0.98811
 Alpha virt. eigenvalues --    1.01544   1.02178   1.02998   1.04773   1.06407
 Alpha virt. eigenvalues --    1.07675   1.08107   1.09138   1.11506   1.12512
 Alpha virt. eigenvalues --    1.17015   1.19826   1.23187   1.24162   1.25247
 Alpha virt. eigenvalues --    1.26943   1.27844   1.29557   1.30487   1.32113
 Alpha virt. eigenvalues --    1.33343   1.35068   1.38776   1.39185   1.41837
 Alpha virt. eigenvalues --    1.42606   1.44322   1.46380   1.47426   1.50607
 Alpha virt. eigenvalues --    1.51736   1.54633   1.55872   1.58098   1.60409
 Alpha virt. eigenvalues --    1.61720   1.64992   1.66554   1.68194   1.69359
 Alpha virt. eigenvalues --    1.70728   1.72551   1.75028   1.77083   1.79055
 Alpha virt. eigenvalues --    1.80382   1.82802   1.84645   1.85671   1.88561
 Alpha virt. eigenvalues --    1.90467   1.93320   1.94881   1.96738   1.98012
 Alpha virt. eigenvalues --    2.00895   2.02837   2.04762   2.06162   2.06382
 Alpha virt. eigenvalues --    2.09664   2.10407   2.14690   2.15402   2.18070
 Alpha virt. eigenvalues --    2.19414   2.20241   2.22473   2.28528   2.30254
 Alpha virt. eigenvalues --    2.31608   2.35513   2.37378   2.38875   2.42449
 Alpha virt. eigenvalues --    2.45091   2.46774   2.46939   2.49849   2.51537
 Alpha virt. eigenvalues --    2.52184   2.55757   2.60758   2.61085   2.64356
 Alpha virt. eigenvalues --    2.65537   2.68327   2.68919   2.69152   2.70065
 Alpha virt. eigenvalues --    2.71856   2.73157   2.74715   2.78283   2.80094
 Alpha virt. eigenvalues --    2.81097   2.84892   2.86848   2.87766   2.90323
 Alpha virt. eigenvalues --    2.92437   2.94516   2.96015   2.99099   3.02942
 Alpha virt. eigenvalues --    3.03132   3.07160   3.12403   3.18955   3.22658
 Alpha virt. eigenvalues --    3.35342   3.39081   3.43238   3.46251   3.47255
 Alpha virt. eigenvalues --    3.48585   3.52176   3.55150   3.57734   3.60785
 Alpha virt. eigenvalues --    4.29661   4.31504   4.43123   4.45702   4.49896
 Alpha virt. eigenvalues --    4.55459   4.61488   4.81219   4.87937   4.96126
 Alpha virt. eigenvalues --    5.05497
          Condensed to atoms (all electrons):
              1          2          3          4          5          6
     1  C    5.596223  -0.283724  -0.430456  -0.344594   0.298295   0.197661
     2  C   -0.283724   6.937531  -0.418804   0.479747  -0.019139  -0.864153
     3  C   -0.430456  -0.418804   6.639625   0.506005  -1.231474   0.209100
     4  C   -0.344594   0.479747   0.506005   6.646902  -0.878233  -0.471206
     5  C    0.298295  -0.019139  -1.231474  -0.878233   7.332836  -0.098054
     6  C    0.197661  -0.864153   0.209100  -0.471206  -0.098054   6.490020
     7  O    0.020096   0.060719   0.247268  -0.112524  -0.071813  -0.054374
     8  O    0.145250  -0.133032   0.364439   0.028686  -0.203408  -0.004863
     9  O    0.018706  -0.158197  -0.024587  -0.097814   0.039401   0.311872
    10  O    0.019691  -0.035169  -0.057538   0.110642   0.069581  -0.073797
    11  O    0.019757  -0.068033  -0.043298  -0.115939   0.151383   0.059269
    12  H    0.475251  -0.166690   0.012843  -0.032477   0.005130   0.069367
    13  H    0.417859  -0.016566  -0.027159  -0.005810   0.014084  -0.006308
    14  H   -0.005321   0.344113   0.021254   0.020208  -0.020036  -0.027280
    15  H    0.008809   0.038915   0.341624   0.005462   0.002919  -0.026480
    16  H    0.001610  -0.018225   0.014069   0.299775   0.007644   0.012341
    17  H    0.015776  -0.026162   0.007545  -0.030753   0.327371   0.010346
    18  H    0.023109  -0.035787  -0.037812  -0.105482   0.072234   0.399026
    19  H    0.001582  -0.021489  -0.024954  -0.056241   0.058490   0.024945
    20  H   -0.001387  -0.008277   0.019760   0.057311  -0.070771   0.014100
    21  H   -0.001595   0.014592  -0.039310   0.020566   0.036345  -0.020452
              7          8          9         10         11         12
     1  C    0.020096   0.145250   0.018706   0.019691   0.019757   0.475251
     2  C    0.060719  -0.133032  -0.158197  -0.035169  -0.068033  -0.166690
     3  C    0.247268   0.364439  -0.024587  -0.057538  -0.043298   0.012843
     4  C   -0.112524   0.028686  -0.097814   0.110642  -0.115939  -0.032477
     5  C   -0.071813  -0.203408   0.039401   0.069581   0.151383   0.005130
     6  C   -0.054374  -0.004863   0.311872  -0.073797   0.059269   0.069367
     7  O    8.406512  -0.045755   0.009006   0.009073   0.014186   0.009594
     8  O   -0.045755   8.402728  -0.001029   0.003850   0.009659  -0.043197
     9  O    0.009006  -0.001029   8.273861   0.009008  -0.005486   0.000161
    10  O    0.009073   0.003850   0.009008   8.356299   0.007178  -0.004156
    11  O    0.014186   0.009659  -0.005486   0.007178   8.387513   0.000042
    12  H    0.009594  -0.043197   0.000161  -0.004156   0.000042   0.533903
    13  H   -0.000543  -0.050733  -0.000216   0.000862   0.000070  -0.039842
    14  H   -0.037495   0.007855   0.005362  -0.000466   0.000686   0.002302
    15  H   -0.043188  -0.045485   0.000266  -0.000177  -0.008859  -0.000260
    16  H   -0.001151  -0.000186  -0.003513  -0.034876  -0.000158  -0.000044
    17  H    0.008709   0.001590  -0.000169  -0.013916  -0.030612   0.000042
    18  H    0.010609  -0.000599  -0.048988   0.004636  -0.000923   0.000158
    19  H    0.017110  -0.000681   0.254927   0.000394   0.001890  -0.000006
    20  H   -0.000002  -0.003169  -0.000579   0.238824   0.000577   0.000295
    21  H   -0.002769   0.000411   0.000618  -0.000350   0.237442  -0.000001
             13         14         15         16         17         18
     1  C    0.417859  -0.005321   0.008809   0.001610   0.015776   0.023109
     2  C   -0.016566   0.344113   0.038915  -0.018225  -0.026162  -0.035787
     3  C   -0.027159   0.021254   0.341624   0.014069   0.007545  -0.037812
     4  C   -0.005810   0.020208   0.005462   0.299775  -0.030753  -0.105482
     5  C    0.014084  -0.020036   0.002919   0.007644   0.327371   0.072234
     6  C   -0.006308  -0.027280  -0.026480   0.012341   0.010346   0.399026
     7  O   -0.000543  -0.037495  -0.043188  -0.001151   0.008709   0.010609
     8  O   -0.050733   0.007855  -0.045485  -0.000186   0.001590  -0.000599
     9  O   -0.000216   0.005362   0.000266  -0.003513  -0.000169  -0.048988
    10  O    0.000862  -0.000466  -0.000177  -0.034876  -0.013916   0.004636
    11  O    0.000070   0.000686  -0.008859  -0.000158  -0.030612  -0.000923
    12  H   -0.039842   0.002302  -0.000260  -0.000044   0.000042   0.000158
    13  H    0.553179  -0.004202   0.000293   0.000004  -0.000010   0.000025
    14  H   -0.004202   0.522473  -0.000046  -0.000138   0.000024  -0.002238
    15  H    0.000293  -0.000046   0.553929  -0.000160  -0.003476   0.000025
    16  H    0.000004  -0.000138  -0.000160   0.571157  -0.003313  -0.003493
    17  H   -0.000010   0.000024  -0.003476  -0.003313   0.569946  -0.000136
    18  H    0.000025  -0.002238   0.000025  -0.003493  -0.000136   0.547141
    19  H   -0.000003  -0.000976   0.000063  -0.001332  -0.000075   0.006101
    20  H   -0.000014   0.000011  -0.000014  -0.005860   0.005467   0.000008
    21  H    0.000000  -0.000005   0.004309   0.000110  -0.005850   0.000014
             19         20         21
     1  C    0.001582  -0.001387  -0.001595
     2  C   -0.021489  -0.008277   0.014592
     3  C   -0.024954   0.019760  -0.039310
     4  C   -0.056241   0.057311   0.020566
     5  C    0.058490  -0.070771   0.036345
     6  C    0.024945   0.014100  -0.020452
     7  O    0.017110  -0.000002  -0.002769
     8  O   -0.000681  -0.003169   0.000411
     9  O    0.254927  -0.000579   0.000618
    10  O    0.000394   0.238824  -0.000350
    11  O    0.001890   0.000577   0.237442
    12  H   -0.000006   0.000295  -0.000001
    13  H   -0.000003  -0.000014   0.000000
    14  H   -0.000976   0.000011  -0.000005
    15  H    0.000063  -0.000014   0.004309
    16  H   -0.001332  -0.005860   0.000110
    17  H   -0.000075   0.005467  -0.005850
    18  H    0.006101   0.000008   0.000014
    19  H    0.336393  -0.000005   0.000177
    20  H   -0.000005   0.340251  -0.000029
    21  H    0.000177  -0.000029   0.341659
 Mulliken atomic charges:
              1
     1  C   -0.192597
     2  C    0.397830
     3  C   -0.048140
     4  C    0.075769
     5  C    0.177215
     6  C   -0.151079
     7  O   -0.443268
     8  O   -0.432330
     9  O   -0.582609
    10  O   -0.609593
    11  O   -0.616345
    12  H    0.177587
    13  H    0.165030
    14  H    0.173916
    15  H    0.171531
    16  H    0.165740
    17  H    0.167659
    18  H    0.172374
    19  H    0.403689
    20  H    0.413502
    21  H    0.414118
 Sum of Mulliken atomic charges =   0.00000
 Mulliken charges with hydrogens summed into heavy atoms:
              1
     1  C    0.150021
     2  C    0.571746
     3  C    0.123391
     4  C    0.241509
     5  C    0.344874
     6  C    0.021295
     7  O   -0.443268
     8  O   -0.432330
     9  O   -0.178920
    10  O   -0.196091
    11  O   -0.202227
 Sum of Mulliken charges with hydrogens summed into heavy atoms =   0.00000
 Electronic spatial extent (au):  <R**2>=           1339.7976
 Charge=              0.0000 electrons
 Dipole moment (field-independent basis, Debye):
    X=              0.8034    Y=             -3.2680    Z=              1.1478  Tot=              3.5557
 Quadrupole moment (field-independent basis, Debye-Ang):
   XX=            -71.3097   YY=            -58.5561   ZZ=            -64.6873
   XY=             11.3759   XZ=             -3.5207   YZ=              0.8859
 Traceless Quadrupole moment (field-independent basis, Debye-Ang):
   XX=             -6.4586   YY=              6.2949   ZZ=              0.1637
   XY=             11.3759   XZ=             -3.5207   YZ=              0.8859
 Octapole moment (field-independent basis, Debye-Ang**2):
  XXX=             11.9755  YYY=            -32.1778  ZZZ=             15.0025  XYY=              2.7768
  XXY=              3.5994  XXZ=             -1.6429  XZZ=            -11.8335  YZZ=            -18.6753
  YYZ=             -5.0655  XYZ=             -5.5179
 Hexadecapole moment (field-independent basis, Debye-Ang**3):
 XXXX=           -696.5307 YYYY=           -473.1070 ZZZZ=           -438.2786 XXXY=             34.0121
 XXXZ=             -2.5326 YYYX=             51.9226 YYYZ=             38.0835 ZZZX=              1.4657
 ZZZY=            -34.8167 XXYY=           -215.6494 XXZZ=           -178.2764 YYZZ=           -152.8232
 XXYZ=             14.7612 YYXZ=             -4.8588 ZZXY=             16.2941
 N-N= 7.367440169780D+02 E-N=-2.903811734784D+03  KE= 6.053565912179D+02

 Test job not archived.
 1\1\GINC-COMPUTE-10-1\SP\RB3LYP\6-31+G(d,p)\C6H10O5\ASAROTTI.IQUIR\16-
 Apr-2019\0\\# B3LYP/6-31+G** test scrf=(pcm,solvent=water,smd,dovacuum
 )\\comment\\0,1\C,0,2.004576,0.507686,0.121398\C,0,0.817284,1.013698,-
 0.712478\C,0,0.613298,-1.187913,-0.559804\C,0,-0.860622,0.180128,1.016
 162\C,0,-0.65634,-1.18743,0.3189\C,0,-0.459181,1.344424,0.080178\O,0,0
 .527871,-0.150473,-1.518688\O,0,1.768126,-0.913306,0.220004\O,0,-1.514
 326,1.632445,-0.831349\O,0,-0.098285,0.308445,2.21104\O,0,-1.816037,-1
 .381975,-0.493119\H,0,2.048802,0.940569,1.121909\H,0,2.952739,0.673409
 ,-0.401024\H,0,1.070138,1.833365,-1.387281\H,0,0.743106,-2.138419,-1.0
 88251\H,0,-1.934021,0.280484,1.22806\H,0,-0.568695,-1.97948,1.077796\H
 ,0,-0.309385,2.243183,0.686533\H,0,-1.664485,0.805619,-1.325375\H,0,-0
 .323229,-0.435876,2.792401\H,0,-1.707839,-2.207503,-0.994006\\Version=
 EM64L-G09RevC.01\State=1-A\HF=-610.804826\RMSD=5.997e-09\Dipole=0.3160
 78,-1.2857373,0.4515917\Quadrupole=-4.801839,4.6801122,0.1217268,8.457
 686,-2.6175284,0.6586789\PG=C01 [X(C6H10O5)]\\@


 THE PROMISED LAND ALWAYS LIES ON THE OTHER SIDE OF A WILDERNESS.

                         -- HAVELOCK ELLIS
 Job cpu time:  0 days  0 hours 15 minutes 43.3 seconds.
 File lengths (MBytes):  RWF=     56 Int=      0 D2E=      0 Chk=      4 Scr=      1
 Normal termination of Gaussian 09 at Tue Apr 16 01:26:15 2019.
