 Entering Gaussian System, Link 0=g09
 Input=/home/mmarcarino.iquir/NMR/01_RSR_Levo08_OPTB_nmr.gjc
 Output=/home/mmarcarino.iquir/NMR/01_RSR_Levo08_OPTB_nmr.log
 Initial command:
 /share/apps/Gaussian09/EM64T.SSE4.2-enabled/g09/l1.exe /tmp/Gau-47838.inp -scrdir=/tmp/
 Entering Link 1 = /share/apps/Gaussian09/EM64T.SSE4.2-enabled/g09/l1.exe PID=     47839.
  
 Copyright (c) 1988,1990,1992,1993,1995,1998,2003,2009,2011,
            Gaussian, Inc.  All Rights Reserved.
  
 This is part of the Gaussian(R) 09 program.  It is based on
 the Gaussian(R) 03 system (copyright 2003, Gaussian, Inc.),
 the Gaussian(R) 98 system (copyright 1998, Gaussian, Inc.),
 the Gaussian(R) 94 system (copyright 1995, Gaussian, Inc.),
 the Gaussian 92(TM) system (copyright 1992, Gaussian, Inc.),
 the Gaussian 90(TM) system (copyright 1990, Gaussian, Inc.),
 the Gaussian 88(TM) system (copyright 1988, Gaussian, Inc.),
 the Gaussian 86(TM) system (copyright 1986, Carnegie Mellon
 University), and the Gaussian 82(TM) system (copyright 1983,
 Carnegie Mellon University). Gaussian is a federally registered
 trademark of Gaussian, Inc.
  
 This software contains proprietary and confidential information,
 including trade secrets, belonging to Gaussian, Inc.
  
 This software is provided under written license and may be
 used, copied, transmitted, or stored only in accord with that
 written license.
  
 The following legend is applicable only to US Government
 contracts under FAR:
  
                    RESTRICTED RIGHTS LEGEND
  
 Use, reproduction and disclosure by the US Government is
 subject to restrictions as set forth in subparagraphs (a)
 and (c) of the Commercial Computer Software - Restricted
 Rights clause in FAR 52.227-19.
  
 Gaussian, Inc.
 340 Quinnipiac St., Bldg. 40, Wallingford CT 06492
  
  
 ---------------------------------------------------------------
 Warning -- This program may not be used in any manner that
 competes with the business of Gaussian, Inc. or will provide
 assistance to any competitor of Gaussian, Inc.  The licensee
 of this program is prohibited from giving any competitor of
 Gaussian, Inc. access to this program.  By using this program,
 the user acknowledges that Gaussian, Inc. is engaged in the
 business of creating and licensing software in the field of
 computational chemistry and represents and warrants to the
 licensee that it is not a competitor of Gaussian, Inc. and that
 it will not use this program in any manner prohibited above.
 ---------------------------------------------------------------
  

 Cite this work as:
 Gaussian 09, Revision C.01,
 M. J. Frisch, G. W. Trucks, H. B. Schlegel, G. E. Scuseria, 
 M. A. Robb, J. R. Cheeseman, G. Scalmani, V. Barone, B. Mennucci, 
 G. A. Petersson, H. Nakatsuji, M. Caricato, X. Li, H. P. Hratchian, 
 A. F. Izmaylov, J. Bloino, G. Zheng, J. L. Sonnenberg, M. Hada, 
 M. Ehara, K. Toyota, R. Fukuda, J. Hasegawa, M. Ishida, T. Nakajima, 
 Y. Honda, O. Kitao, H. Nakai, T. Vreven, J. A. Montgomery, Jr., 
 J. E. Peralta, F. Ogliaro, M. Bearpark, J. J. Heyd, E. Brothers, 
 K. N. Kudin, V. N. Staroverov, T. Keith, R. Kobayashi, J. Normand, 
 K. Raghavachari, A. Rendell, J. C. Burant, S. S. Iyengar, J. Tomasi, 
 M. Cossi, N. Rega, J. M. Millam, M. Klene, J. E. Knox, J. B. Cross, 
 V. Bakken, C. Adamo, J. Jaramillo, R. Gomperts, R. E. Stratmann, 
 O. Yazyev, A. J. Austin, R. Cammi, C. Pomelli, J. W. Ochterski, 
 R. L. Martin, K. Morokuma, V. G. Zakrzewski, G. A. Voth, 
 P. Salvador, J. J. Dannenberg, S. Dapprich, A. D. Daniels, 
 O. Farkas, J. B. Foresman, J. V. Ortiz, J. Cioslowski, 
 and D. J. Fox, Gaussian, Inc., Wallingford CT, 2010.
 
 ******************************************
 Gaussian 09:  EM64L-G09RevC.01 23-Sep-2011
                12-Apr-2019 
 ******************************************
 %nprocshared=4
 Will use up to    4 processors via shared memory.
 ------------------------------------------------
 # mpw1pw91/6-31+g** nmr scrf=(pcm,solvent=water)
 ------------------------------------------------
 1/38=1/1;
 2/12=2,17=6,18=5,40=1/2;
 3/5=1,6=6,7=111,11=2,16=1,25=1,30=1,70=2201,72=1,74=-7/1,2,8,3;
 4//1;
 5/5=2,38=5,53=1/2;
 8/6=1,10=90,11=11/1;
 10/13=100,45=16/2;
 6/7=2,8=2,9=2,10=2,28=1/1;
 99/9=1/99;
 -------
 comment
 -------
 Charge =  0 Multiplicity = 1
 Symbolic Z-Matrix:
 6                     2.12307  -0.62049  -0.63744 
 6                     1.09667  -1.02846   0.41932 
 6                     0.95583   1.17372   0.22569 
 6                    -1.21988  -0.04993   0.04562 
 6                    -0.51778   1.27629  -0.2504 
 6                    -0.31136  -1.27036  -0.18741 
 8                     1.08393   0.17443   1.22252 
 8                     1.79122   0.76099  -0.86116 
 8                    -0.95386  -2.44924   0.30019 
 8                    -2.40422  -0.15283  -0.73211 
 8                    -1.22729   2.28835   0.4598 
 1                     2.03698  -1.16764  -1.57974 
 1                     3.14643  -0.7082   -0.25373 
 1                     1.40706  -1.86125   1.05259 
 1                     1.31016   2.12426   0.63581 
 1                    -1.46725  -0.02803   1.119 
 1                    -0.52556   1.47177  -1.33033 
 1                    -0.22819  -1.43919  -1.26575 
 1                    -1.06702  -2.35339   1.26175 
 1                    -2.75188  -1.04571  -0.56225 
 1                    -0.93827   3.14916   0.11655 
 
                          Input orientation:                          
 ---------------------------------------------------------------------
 Center     Atomic      Atomic             Coordinates (Angstroms)
 Number     Number       Type             X           Y           Z
 ---------------------------------------------------------------------
      1          6           0        2.123074   -0.620488   -0.637436
      2          6           0        1.096669   -1.028461    0.419315
      3          6           0        0.955825    1.173718    0.225688
      4          6           0       -1.219881   -0.049930    0.045619
      5          6           0       -0.517777    1.276292   -0.250404
      6          6           0       -0.311363   -1.270358   -0.187413
      7          8           0        1.083929    0.174433    1.222519
      8          8           0        1.791218    0.760986   -0.861162
      9          8           0       -0.953855   -2.449236    0.300190
     10          8           0       -2.404223   -0.152834   -0.732109
     11          8           0       -1.227289    2.288350    0.459798
     12          1           0        2.036984   -1.167642   -1.579744
     13          1           0        3.146431   -0.708195   -0.253726
     14          1           0        1.407064   -1.861254    1.052585
     15          1           0        1.310164    2.124260    0.635808
     16          1           0       -1.467246   -0.028028    1.119003
     17          1           0       -0.525562    1.471773   -1.330333
     18          1           0       -0.228193   -1.439191   -1.265755
     19          1           0       -1.067023   -2.353395    1.261745
     20          1           0       -2.751878   -1.045709   -0.562245
     21          1           0       -0.938266    3.149159    0.116553
 ---------------------------------------------------------------------
                    Distance matrix (angstroms):
                    1          2          3          4          5
     1  C    0.000000
     2  C    1.528618   0.000000
     3  C    2.307949   2.215157   0.000000
     4  C    3.459400   2.542356   2.502686   0.000000
     5  C    3.274395   2.892550   1.551995   1.529524   0.000000
     6  C    2.559558   1.552156   2.783869   1.539205   2.555778
     7  O    2.274017   1.446462   1.417270   2.596723   2.439069
     8  O    1.438281   2.307410   1.431598   3.247546   2.443363
     9  O    3.700129   2.497487   4.096123   2.427395   3.791158
    10  O    4.552371   3.787974   3.737250   1.420604   2.415185
    11  O    4.570579   4.050143   2.462356   2.374690   1.425502
    12  H    1.093039   2.213549   3.148088   3.807657   3.777137
    13  H    1.096442   2.181073   2.927489   4.425788   4.167088
    14  H    2.215478   1.091293   3.177803   3.346000   3.904739
    15  H    3.132988   3.167349   1.094205   3.387706   2.201315
    16  H    4.040604   2.839734   2.848417   1.101736   2.116133
    17  H    3.445713   3.456020   2.168996   2.165849   1.097506
    18  H    2.567784   2.182526   3.233202   2.152485   2.913528
    19  H    4.097142   2.673332   4.195933   2.609268   3.970251
    20  H    4.894040   3.971784   4.392466   1.925640   3.237305
    21  H    4.914320   4.656730   2.738952   3.212244   1.954252
                    6          7          8          9         10
     6  C    0.000000
     7  O    2.454011   0.000000
     8  O    3.000190   2.277285   0.000000
     9  O    1.428393   3.447737   4.380604   0.000000
    10  O    2.434259   4.011842   4.295748   2.905627   0.000000
    11  O    3.731247   3.223681   3.631688   4.748154   2.960607
    12  H    2.732008   3.249947   2.072768   3.757892   4.633858
    13  H    3.503821   2.685563   2.089037   4.488919   5.598842
    14  H    2.199942   2.068167   3.268967   2.546715   4.541997
    15  H    3.851035   2.048716   2.081069   5.114224   4.566511
    16  H    2.141535   2.561289   3.893737   2.606966   2.078489
    17  H    2.978495   3.284906   2.468362   4.268062   2.554719
    18  H    1.094643   3.242985   3.013718   1.999740   2.583525
    19  H    1.960625   3.319344   4.730290   0.972924   3.256689
    20  H    2.479330   4.403129   4.898287   2.438559   0.973110
    21  H    4.474096   3.763167   3.756245   5.601428   3.711120
                   11         12         13         14         15
    11  O    0.000000
    12  H    5.172919   0.000000
    13  H    5.349563   1.788935   0.000000
    14  H    4.950800   2.794110   2.461989   0.000000
    15  H    2.548838   4.034050   3.490838   4.008418   0.000000
    16  H    2.420276   4.567448   4.861381   3.409807   3.546805
    17  H    2.088968   3.687189   4.403961   4.530167   2.767913
    18  H    4.227326   2.302901   3.598145   2.868258   4.322114
    19  H    4.713237   4.372062   4.770380   2.531217   5.108053
    20  H    3.805902   4.897282   5.916008   4.535371   5.290011
    21  H    0.970744   5.510382   5.630367   5.610790   2.524972
                   16         17         18         19         20
    16  H    0.000000
    17  H    3.022486   0.000000
    18  H    3.035408   2.926826   0.000000
    19  H    2.363871   4.652307   2.815610   0.000000
    20  H    2.347882   3.447341   2.649291   2.806371   0.000000
    21  H    3.373313   2.253315   4.844371   5.621934   4.620268
                   21
    21  H    0.000000
 Stoichiometry    C6H10O5
 Framework group  C1[X(C6H10O5)]
 Deg. of freedom    57
 Full point group                 C1      NOp   1
 Largest Abelian subgroup         C1      NOp   1
 Largest concise Abelian subgroup C1      NOp   1
                         Standard orientation:                         
 ---------------------------------------------------------------------
 Center     Atomic      Atomic             Coordinates (Angstroms)
 Number     Number       Type             X           Y           Z
 ---------------------------------------------------------------------
      1          6           0        2.123074   -0.620488   -0.637436
      2          6           0        1.096669   -1.028461    0.419315
      3          6           0        0.955825    1.173718    0.225688
      4          6           0       -1.219881   -0.049930    0.045619
      5          6           0       -0.517777    1.276292   -0.250404
      6          6           0       -0.311363   -1.270358   -0.187413
      7          8           0        1.083929    0.174433    1.222519
      8          8           0        1.791218    0.760986   -0.861162
      9          8           0       -0.953855   -2.449236    0.300190
     10          8           0       -2.404223   -0.152834   -0.732109
     11          8           0       -1.227289    2.288350    0.459798
     12          1           0        2.036984   -1.167642   -1.579744
     13          1           0        3.146431   -0.708196   -0.253726
     14          1           0        1.407064   -1.861254    1.052585
     15          1           0        1.310164    2.124260    0.635808
     16          1           0       -1.467246   -0.028028    1.119003
     17          1           0       -0.525562    1.471773   -1.330333
     18          1           0       -0.228193   -1.439191   -1.265755
     19          1           0       -1.067023   -2.353395    1.261745
     20          1           0       -2.751878   -1.045709   -0.562245
     21          1           0       -0.938265    3.149159    0.116553
 ---------------------------------------------------------------------
 Rotational constants (GHZ):      1.3962415      1.2578497      0.8067118
 Standard basis: 6-31+G(d,p) (6D, 7F)
 There are   259 symmetry adapted basis functions of A   symmetry.
 Integral buffers will be    131072 words long.
 Raffenetti 2 integral format.
 Two-electron integral symmetry is turned on.
   259 basis functions,   422 primitive gaussians,   259 cartesian basis functions
    43 alpha electrons       43 beta electrons
       nuclear repulsion energy       716.8323397270 Hartrees.
 NAtoms=   21 NActive=   21 NUniq=   21 SFac= 1.00D+00 NAtFMM=   60 NAOKFM=F Big=F
 ------------------------------------------------------------------------------
 Polarizable Continuum Model (PCM)
 =================================
 Model                : PCM.
 Atomic radii         : UFF (Universal Force Field).
 Polarization charges : Total charges.
 Charge compensation  : None.
 Solution method      : Matrix inversion.
 Cavity type          : Scaled VdW (van der Waals Surface) (Alpha=1.100).
 Cavity algorithm     : GePol (No added spheres)
                        Default sphere list used, NSphG=   21.
                        Lebedev-Laikov grids with approx.  5.0 points / Ang**2.
                        Smoothing algorithm: Karplus/York (Gamma=1.0000).
                        Polarization charges: spherical gaussians, with
                                              point-specific exponents (IZeta= 3).
                        Self-potential: point-specific (ISelfS= 7).
                        Self-field    : sphere-specific E.n sum rule (ISelfD= 2).
 Solvent              : Water, Eps=  78.355300 Eps(inf)=   1.777849
 ------------------------------------------------------------------------------
 One-electron integrals computed using PRISM.
 NBasis=   259 RedAO= T  NBF=   259
 NBsUse=   259 1.00D-06 NBFU=   259
 Harris functional with IExCor=  908 diagonalized for initial guess.
 ExpMin= 4.38D-02 ExpMax= 5.48D+03 ExpMxC= 8.25D+02 IAcc=2 IRadAn=         4 AccDes= 0.00D+00
 HarFok:  IExCor=  908 AccDes= 0.00D+00 IRadAn=         4 IDoV= 1
 ScaDFX=  1.000000  1.000000  1.000000  1.000000
 FoFCou: FMM=F IPFlag=           0 FMFlag=      100000 FMFlg1=           0
         NFxFlg=           0 DoJE=T BraDBF=F KetDBF=T FulRan=T
         Omega=  0.000000  0.000000  1.000000  0.000000  0.000000 ICntrl=     500 IOpCl=  0
         NMat0=    1 NMatS0=    1 NMatT0=    0 NMatD0=    1 NMtDS0=    0 NMtDT0=    0
         I1Cent=           4 NGrid=           0.
 Petite list used in FoFCou.
 Initial guess orbital symmetries:
       Occupied  (A) (A) (A) (A) (A) (A) (A) (A) (A) (A) (A) (A)
                 (A) (A) (A) (A) (A) (A) (A) (A) (A) (A) (A) (A)
                 (A) (A) (A) (A) (A) (A) (A) (A) (A) (A) (A) (A)
                 (A) (A) (A) (A) (A) (A) (A)
       Virtual   (A) (A) (A) (A) (A) (A) (A) (A) (A) (A) (A) (A)
                 (A) (A) (A) (A) (A) (A) (A) (A) (A) (A) (A) (A)
                 (A) (A) (A) (A) (A) (A) (A) (A) (A) (A) (A) (A)
                 (A) (A) (A) (A) (A) (A) (A) (A) (A) (A) (A) (A)
                 (A) (A) (A) (A) (A) (A) (A) (A) (A) (A) (A) (A)
                 (A) (A) (A) (A) (A) (A) (A) (A) (A) (A) (A) (A)
                 (A) (A) (A) (A) (A) (A) (A) (A) (A) (A) (A) (A)
                 (A) (A) (A) (A) (A) (A) (A) (A) (A) (A) (A) (A)
                 (A) (A) (A) (A) (A) (A) (A) (A) (A) (A) (A) (A)
                 (A) (A) (A) (A) (A) (A) (A) (A) (A) (A) (A) (A)
                 (A) (A) (A) (A) (A) (A) (A) (A) (A) (A) (A) (A)
                 (A) (A) (A) (A) (A) (A) (A) (A) (A) (A) (A) (A)
                 (A) (A) (A) (A) (A) (A) (A) (A) (A) (A) (A) (A)
                 (A) (A) (A) (A) (A) (A) (A) (A) (A) (A) (A) (A)
                 (A) (A) (A) (A) (A) (A) (A) (A) (A) (A) (A) (A)
                 (A) (A) (A) (A) (A) (A) (A) (A) (A) (A) (A) (A)
                 (A) (A) (A) (A) (A) (A) (A) (A) (A) (A) (A) (A)
                 (A) (A) (A) (A) (A) (A) (A) (A) (A) (A) (A) (A)
 The electronic state of the initial guess is 1-A.
 Requested convergence on RMS density matrix=1.00D-08 within 128 cycles.
 Requested convergence on MAX density matrix=1.00D-06.
 Requested convergence on             energy=1.00D-06.
 No special actions if energy rises.
 Error on total polarization charges =  0.01188
 SCF Done:  E(RmPW1PW91) =  -610.643398596     A.U. after   12 cycles
             Convg  =    0.4331D-08             -V/T =  2.0090
 Range of M.O.s used for correlation:     1   259
 NBasis=   259 NAE=    43 NBE=    43 NFC=     0 NFV=     0
 NROrb=    259 NOA=    43 NOB=    43 NVA=   216 NVB=   216

 **** Warning!!: The largest alpha MO coefficient is  0.62297574D+02

 NEqPCM:  Using equilibrium solvation (IEInf=0, Eps=  78.3553, EpsInf=   1.7778)
          Differentiating once with respect to magnetic field using GIAOs.
          Electric field/nuclear overlap derivatives assumed to be zero.
 FoFCou: FMM=F IPFlag=           0 FMFlag=    10101102 FMFlg1=           0
         NFxFlg=    40000000 DoJE=F BraDBF=F KetDBF=T FulRan=T
         Omega=  0.000000  0.000000  1.000000  0.000000  0.000000 ICntrl=    6100 IOpCl=  0
         NMat0=    1 NMatS0=    1 NMatT0=    0 NMatD0=    1 NMtDS0=    0 NMtDT0=    0
         I1Cent=           7 NGrid=        1545.
 Symmetry not used in FoFCou.
          There are     3 degrees of freedom in the 1st order CPHF.  IDoFFX=0.
      3 vectors produced by pass  0 Test12= 3.10D-13 3.33D-08 XBig12= 2.26D+01 8.18D-01.
 AX will form     3 AO Fock derivatives at one time.
      3 vectors produced by pass  1 Test12= 3.10D-13 3.33D-08 XBig12= 5.83D-02 3.24D-02.
      3 vectors produced by pass  2 Test12= 3.10D-13 3.33D-08 XBig12= 1.42D-04 2.03D-03.
      3 vectors produced by pass  3 Test12= 3.10D-13 3.33D-08 XBig12= 6.86D-07 1.20D-04.
      3 vectors produced by pass  4 Test12= 3.10D-13 3.33D-08 XBig12= 1.98D-09 6.34D-06.
      3 vectors produced by pass  5 Test12= 3.10D-13 3.33D-08 XBig12= 5.28D-12 4.12D-07.
 Inverted reduced A of dimension    18 with in-core refinement.
 Calculating GIAO nuclear magnetic shielding tensors.
 SCF GIAO Magnetic shielding tensor (ppm):
      1  C    Isotropic =   125.9224   Anisotropy =    41.8852
   XX=   113.6321   YX=   -11.5603   ZX=    -9.8499
   XY=     3.8921   YY=   151.8408   ZY=   -13.7706
   XZ=    -3.9363   YZ=    -3.8152   ZZ=   112.2944
   Eigenvalues:   104.2791   119.6423   153.8459
      2  C    Isotropic =   115.4503   Anisotropy =    40.9516
   XX=   106.8633   YX=    10.5642   ZX=    -4.0273
   XY=     3.0724   YY=   134.4607   ZY=    16.9668
   XZ=     1.8284   YZ=    15.9259   ZZ=   105.0269
   Eigenvalues:    96.2266   107.3729   142.7514
      3  C    Isotropic =    89.4984   Anisotropy =    24.6824
   XX=    91.2822   YX=   -11.9688   ZX=   -16.7535
   XY=   -10.3687   YY=    86.6402   ZY=     2.7488
   XZ=    -9.8520   YZ=   -11.0235   ZZ=    90.5729
   Eigenvalues:    70.2256    92.3163   105.9533
      4  C    Isotropic =   118.7254   Anisotropy =    19.4129
   XX=   122.6093   YX=    -2.1291   ZX=    11.1121
   XY=     2.3531   YY=   115.1420   ZY=     3.4439
   XZ=    10.5380   YZ=     0.7835   ZZ=   118.4248
   Eigenvalues:   109.0843   115.4245   131.6673
      5  C    Isotropic =   118.0833   Anisotropy =    30.0851
   XX=   126.5011   YX=   -17.2368   ZX=    -6.4631
   XY=    -4.7165   YY=   112.7189   ZY=     7.8469
   XZ=    -3.4543   YZ=    18.3761   ZZ=   115.0301
   Eigenvalues:    99.7026   116.4074   138.1401
      6  C    Isotropic =   117.0327   Anisotropy =    24.9501
   XX=   126.8389   YX=    16.4982   ZX=    -8.1781
   XY=    -0.6933   YY=   116.3111   ZY=   -10.3785
   XZ=     1.6701   YZ=   -10.2567   ZZ=   107.9482
   Eigenvalues:   100.8679   116.5642   133.6662
      7  O    Isotropic =   247.8591   Anisotropy =    41.8525
   XX=   220.5982   YX=   -25.7084   ZX=   -15.0329
   XY=   -20.4649   YY=   257.0349   ZY=   -15.7580
   XZ=   -31.4065   YZ=    -4.9219   ZZ=   265.9441
   Eigenvalues:   199.6680   268.1485   275.7607
      8  O    Isotropic =   261.6854   Anisotropy =   122.9816
   XX=   233.5689   YX=   -44.0633   ZX=   -58.6853
   XY=   -31.5412   YY=   246.7894   ZY=   -24.0060
   XZ=   -67.3648   YZ=   -50.4626   ZZ=   304.6979
   Eigenvalues:   164.3238   277.0593   343.6731
      9  O    Isotropic =   284.4885   Anisotropy =    59.9675
   XX=   265.0124   YX=    11.4497   ZX=    -9.5315
   XY=     6.3703   YY=   271.0223   ZY=     4.8413
   XZ=   -22.3080   YZ=   -24.1120   ZZ=   317.4310
   Eigenvalues:   257.4355   271.5633   324.4669
     10  O    Isotropic =   302.9928   Anisotropy =    42.0075
   XX=   288.1466   YX=    16.3108   ZX=     3.9094
   XY=    24.7695   YY=   308.2021   ZY=    10.8386
   XZ=    30.6522   YZ=    -3.1053   ZZ=   312.6297
   Eigenvalues:   271.1725   306.8080   330.9978
     11  O    Isotropic =   290.8501   Anisotropy =    54.8474
   XX=   274.5912   YX=    22.3641   ZX=    -8.0115
   XY=     3.0644   YY=   324.3527   ZY=     5.8485
   XZ=   -20.9760   YZ=     0.4803   ZZ=   273.6064
   Eigenvalues:   257.6999   287.4354   327.4150
     12  H    Isotropic =    27.7094   Anisotropy =     7.6758
   XX=    26.1363   YX=    -1.4687   ZX=    -1.6839
   XY=    -1.6342   YY=    28.7318   ZY=     3.9748
   XZ=    -2.3760   YZ=     2.7664   ZZ=    28.2602
   Eigenvalues:    24.7500    25.5516    32.8267
     13  H    Isotropic =    27.8975   Anisotropy =    10.9947
   XX=    33.6794   YX=    -3.4930   ZX=     0.0603
   XY=    -3.3584   YY=    26.8432   ZY=    -1.3707
   XZ=     1.5184   YZ=    -1.2519   ZZ=    23.1700
   Eigenvalues:    22.7394    25.7258    35.2273
     14  H    Isotropic =    27.1951   Anisotropy =     6.6529
   XX=    26.2679   YX=    -1.9965   ZX=     1.9406
   XY=    -0.5568   YY=    30.1673   ZY=    -2.6868
   XZ=     1.3092   YZ=    -1.8086   ZZ=    25.1502
   Eigenvalues:    23.7502    26.2048    31.6304
     15  H    Isotropic =    26.3674   Anisotropy =     6.5826
   XX=    25.3847   YX=     1.9199   ZX=     0.0640
   XY=     1.2068   YY=    29.8443   ZY=     1.4991
   XZ=    -0.2499   YZ=     2.0998   ZZ=    23.8733
   Eigenvalues:    23.2327    25.1137    30.7559
     16  H    Isotropic =    28.1515   Anisotropy =     3.1297
   XX=    29.1300   YX=     0.8437   ZX=     1.4559
   XY=    -0.1138   YY=    25.9037   ZY=     0.4552
   XZ=     0.2848   YZ=     0.4717   ZZ=    29.4207
   Eigenvalues:    25.8234    28.3931    30.2380
     17  H    Isotropic =    28.0874   Anisotropy =     2.7212
   XX=    27.1186   YX=    -2.0617   ZX=    -1.2391
   XY=    -2.4960   YY=    27.6040   ZY=    -0.2594
   XZ=    -0.7408   YZ=    -1.4915   ZZ=    29.5396
   Eigenvalues:    24.7081    29.6526    29.9015
     18  H    Isotropic =    28.2314   Anisotropy =     3.8008
   XX=    27.7728   YX=     1.7837   ZX=    -2.0072
   XY=     3.1089   YY=    27.2404   ZY=    -0.0818
   XZ=    -1.1562   YZ=     1.4372   ZZ=    29.6811
   Eigenvalues:    24.5609    29.3681    30.7653
     19  H    Isotropic =    30.4499   Anisotropy =    16.1903
   XX=    24.3058   YX=     2.5912   ZX=    -3.7722
   XY=     2.5653   YY=    27.2548   ZY=    -2.6694
   XZ=    -3.2388   YZ=    -2.5590   ZZ=    39.7891
   Eigenvalues:    22.6068    27.4995    41.2434
     20  H    Isotropic =    28.9978   Anisotropy =    17.5656
   XX=    30.7189   YX=     7.1992   ZX=     2.9161
   XY=     6.3710   YY=    35.9767   ZY=    -3.9671
   XZ=     1.8378   YZ=    -2.3852   ZZ=    20.2978
   Eigenvalues:    18.3883    27.8969    40.7082
     21  H    Isotropic =    29.6283   Anisotropy =    19.6375
   XX=    23.7349   YX=     0.9430   ZX=    -3.6177
   XY=     1.5485   YY=    41.8509   ZY=    -3.9106
   XZ=    -2.3848   YZ=    -3.4198   ZZ=    23.2991
   Eigenvalues:    20.3363    25.8287    42.7200
 End of Minotr Frequency-dependent properties file   721 does not exist.
 End of Minotr Frequency-dependent properties file   722 does not exist.

 **********************************************************************

            Population analysis using the SCF density.

 **********************************************************************

 Orbital symmetries:
       Occupied  (A) (A) (A) (A) (A) (A) (A) (A) (A) (A) (A) (A)
                 (A) (A) (A) (A) (A) (A) (A) (A) (A) (A) (A) (A)
                 (A) (A) (A) (A) (A) (A) (A) (A) (A) (A) (A) (A)
                 (A) (A) (A) (A) (A) (A) (A)
       Virtual   (A) (A) (A) (A) (A) (A) (A) (A) (A) (A) (A) (A)
                 (A) (A) (A) (A) (A) (A) (A) (A) (A) (A) (A) (A)
                 (A) (A) (A) (A) (A) (A) (A) (A) (A) (A) (A) (A)
                 (A) (A) (A) (A) (A) (A) (A) (A) (A) (A) (A) (A)
                 (A) (A) (A) (A) (A) (A) (A) (A) (A) (A) (A) (A)
                 (A) (A) (A) (A) (A) (A) (A) (A) (A) (A) (A) (A)
                 (A) (A) (A) (A) (A) (A) (A) (A) (A) (A) (A) (A)
                 (A) (A) (A) (A) (A) (A) (A) (A) (A) (A) (A) (A)
                 (A) (A) (A) (A) (A) (A) (A) (A) (A) (A) (A) (A)
                 (A) (A) (A) (A) (A) (A) (A) (A) (A) (A) (A) (A)
                 (A) (A) (A) (A) (A) (A) (A) (A) (A) (A) (A) (A)
                 (A) (A) (A) (A) (A) (A) (A) (A) (A) (A) (A) (A)
                 (A) (A) (A) (A) (A) (A) (A) (A) (A) (A) (A) (A)
                 (A) (A) (A) (A) (A) (A) (A) (A) (A) (A) (A) (A)
                 (A) (A) (A) (A) (A) (A) (A) (A) (A) (A) (A) (A)
                 (A) (A) (A) (A) (A) (A) (A) (A) (A) (A) (A) (A)
                 (A) (A) (A) (A) (A) (A) (A) (A) (A) (A) (A) (A)
                 (A) (A) (A) (A) (A) (A) (A) (A) (A) (A) (A) (A)
 The electronic state is 1-A.
 Alpha  occ. eigenvalues --  -19.27925 -19.27112 -19.27052 -19.26553 -19.26157
 Alpha  occ. eigenvalues --  -10.36026 -10.32099 -10.31797 -10.31435 -10.31406
 Alpha  occ. eigenvalues --  -10.30793  -1.14434  -1.08527  -1.07170  -1.05668
 Alpha  occ. eigenvalues --   -1.04158  -0.82251  -0.81385  -0.70478  -0.68433
 Alpha  occ. eigenvalues --   -0.65406  -0.60202  -0.57510  -0.56766  -0.54985
 Alpha  occ. eigenvalues --   -0.53272  -0.49849  -0.48253  -0.47021  -0.46696
 Alpha  occ. eigenvalues --   -0.45596  -0.43558  -0.41728  -0.40309  -0.38952
 Alpha  occ. eigenvalues --   -0.37495  -0.36684  -0.36480  -0.33563  -0.32568
 Alpha  occ. eigenvalues --   -0.31576  -0.28573  -0.27818
 Alpha virt. eigenvalues --    0.00995   0.01341   0.01746   0.02673   0.03616
 Alpha virt. eigenvalues --    0.04311   0.04576   0.05095   0.05986   0.07791
 Alpha virt. eigenvalues --    0.08112   0.09327   0.09498   0.10352   0.11264
 Alpha virt. eigenvalues --    0.11699   0.12483   0.13235   0.13718   0.14137
 Alpha virt. eigenvalues --    0.14931   0.15644   0.15800   0.16148   0.16413
 Alpha virt. eigenvalues --    0.17951   0.18581   0.19867   0.20790   0.21190
 Alpha virt. eigenvalues --    0.21269   0.21819   0.22356   0.23572   0.24653
 Alpha virt. eigenvalues --    0.24932   0.25348   0.25689   0.26791   0.26908
 Alpha virt. eigenvalues --    0.28150   0.28700   0.29144   0.30160   0.30784
 Alpha virt. eigenvalues --    0.31383   0.32097   0.32643   0.33468   0.34029
 Alpha virt. eigenvalues --    0.34534   0.34940   0.35324   0.35896   0.36256
 Alpha virt. eigenvalues --    0.37558   0.38232   0.39267   0.39573   0.40315
 Alpha virt. eigenvalues --    0.41698   0.42255   0.43082   0.44585   0.44776
 Alpha virt. eigenvalues --    0.45841   0.64726   0.68262   0.69141   0.69466
 Alpha virt. eigenvalues --    0.71512   0.73565   0.75637   0.76587   0.78541
 Alpha virt. eigenvalues --    0.80958   0.81803   0.82120   0.84140   0.85938
 Alpha virt. eigenvalues --    0.87345   0.89280   0.94482   0.95541   0.97728
 Alpha virt. eigenvalues --    0.99508   1.02769   1.04005   1.05138   1.05987
 Alpha virt. eigenvalues --    1.07403   1.08757   1.09885   1.12192   1.15302
 Alpha virt. eigenvalues --    1.17026   1.22323   1.25488   1.26001   1.27701
 Alpha virt. eigenvalues --    1.28123   1.29340   1.30579   1.32347   1.33064
 Alpha virt. eigenvalues --    1.34870   1.37616   1.38497   1.40339   1.41443
 Alpha virt. eigenvalues --    1.41981   1.44038   1.45140   1.48745   1.49403
 Alpha virt. eigenvalues --    1.52139   1.55433   1.55934   1.58698   1.60075
 Alpha virt. eigenvalues --    1.60903   1.63335   1.65245   1.67686   1.69289
 Alpha virt. eigenvalues --    1.71160   1.72179   1.73859   1.78832   1.79454
 Alpha virt. eigenvalues --    1.80460   1.83335   1.83920   1.84830   1.87229
 Alpha virt. eigenvalues --    1.88055   1.92940   1.94102   1.97924   1.98215
 Alpha virt. eigenvalues --    1.99754   2.01026   2.02845   2.05165   2.08185
 Alpha virt. eigenvalues --    2.09355   2.11627   2.13015   2.15993   2.16770
 Alpha virt. eigenvalues --    2.19886   2.22910   2.24219   2.28069   2.31401
 Alpha virt. eigenvalues --    2.33010   2.36676   2.38109   2.39762   2.40798
 Alpha virt. eigenvalues --    2.46119   2.47020   2.48487   2.49590   2.50589
 Alpha virt. eigenvalues --    2.55474   2.57150   2.58762   2.62779   2.63566
 Alpha virt. eigenvalues --    2.64769   2.65528   2.67217   2.69396   2.70593
 Alpha virt. eigenvalues --    2.73052   2.74875   2.75996   2.77335   2.79315
 Alpha virt. eigenvalues --    2.83192   2.85599   2.87825   2.88863   2.92937
 Alpha virt. eigenvalues --    2.94156   2.95487   2.97388   3.00402   3.05355
 Alpha virt. eigenvalues --    3.06754   3.08120   3.11915   3.21005   3.27527
 Alpha virt. eigenvalues --    3.34330   3.37111   3.42284   3.46513   3.49827
 Alpha virt. eigenvalues --    3.51881   3.52527   3.53311   3.56375   3.62061
 Alpha virt. eigenvalues --    4.29466   4.35537   4.41235   4.43827   4.50175
 Alpha virt. eigenvalues --    4.59304   4.68490   4.72767   4.78183   4.91457
 Alpha virt. eigenvalues --    5.02883
          Condensed to atoms (all electrons):
              1          2          3          4          5          6
     1  C    5.549343  -0.158574  -0.327522   0.073415   0.131955  -0.104238
     2  C   -0.158574   6.532862  -0.241957  -0.047465   0.053281  -0.435139
     3  C   -0.327522  -0.241957   6.331926  -0.164843  -0.507817   0.120693
     4  C    0.073415  -0.047465  -0.164843   6.087080  -0.163668  -0.101686
     5  C    0.131955   0.053281  -0.507817  -0.163668   6.527260  -0.420279
     6  C   -0.104238  -0.435139   0.120693  -0.101686  -0.420279   6.487945
     7  O   -0.041113   0.116132   0.317352  -0.046908  -0.102897  -0.095055
     8  O    0.186695  -0.150089   0.284988   0.013364  -0.133990   0.061885
     9  O   -0.002136   0.007623  -0.011199  -0.097490   0.027231   0.220355
    10  O    0.000995   0.031320   0.060224   0.288969  -0.196648  -0.089029
    11  O    0.003522   0.009467  -0.129185  -0.154370   0.316696   0.024652
    12  H    0.458682  -0.113947   0.012939   0.004027   0.010440  -0.004990
    13  H    0.375252  -0.012378  -0.010614  -0.001753   0.003069   0.021165
    14  H    0.024770   0.309469  -0.001066   0.015614   0.005056  -0.011591
    15  H    0.002895   0.015169   0.361242   0.012020  -0.020863   0.014403
    16  H    0.006633  -0.038114   0.016665   0.394453  -0.074567   0.017113
    17  H    0.016477  -0.007760  -0.027671  -0.044174   0.388992  -0.009284
    18  H    0.046280  -0.158806   0.001190  -0.068098   0.019638   0.489383
    19  H    0.011883  -0.073769  -0.000818  -0.040428   0.011131   0.085408
    20  H   -0.000087   0.017334  -0.010805   0.009538   0.048093  -0.072410
    21  H    0.000621  -0.002612  -0.038202   0.022052   0.032533  -0.004307
              7          8          9         10         11         12
     1  C   -0.041113   0.186695  -0.002136   0.000995   0.003522   0.458682
     2  C    0.116132  -0.150089   0.007623   0.031320   0.009467  -0.113947
     3  C    0.317352   0.284988  -0.011199   0.060224  -0.129185   0.012939
     4  C   -0.046908   0.013364  -0.097490   0.288969  -0.154370   0.004027
     5  C   -0.102897  -0.133990   0.027231  -0.196648   0.316696   0.010440
     6  C   -0.095055   0.061885   0.220355  -0.089029   0.024652  -0.004990
     7  O    8.318665  -0.068669  -0.000780   0.000286   0.013070   0.011617
     8  O   -0.068669   8.319890  -0.000710  -0.005730   0.004000  -0.050348
     9  O   -0.000780  -0.000710   8.244397  -0.012324  -0.000004   0.000575
    10  O    0.000286  -0.005730  -0.012324   8.280217   0.010384   0.000141
    11  O    0.013070   0.004000  -0.000004   0.010384   8.267757  -0.000008
    12  H    0.011617  -0.050348   0.000575   0.000141  -0.000008   0.523323
    13  H   -0.006666  -0.045578  -0.000237  -0.000035   0.000028  -0.036529
    14  H   -0.035137   0.009054  -0.002604  -0.000404   0.000065   0.001644
    15  H   -0.053104  -0.043119  -0.000027  -0.000706  -0.003465  -0.000250
    16  H    0.006018  -0.000915  -0.014884  -0.050350  -0.004414   0.000001
    17  H    0.011041  -0.004897  -0.000429   0.000112  -0.041698  -0.000060
    18  H    0.010351  -0.001484  -0.064264  -0.004261  -0.000431   0.001903
    19  H    0.002991  -0.000174   0.244725  -0.002293  -0.000142  -0.000001
    20  H    0.000113   0.000124   0.019907   0.236491  -0.000808  -0.000002
    21  H   -0.001186   0.000310   0.000009  -0.001492   0.240050   0.000000
             13         14         15         16         17         18
     1  C    0.375252   0.024770   0.002895   0.006633   0.016477   0.046280
     2  C   -0.012378   0.309469   0.015169  -0.038114  -0.007760  -0.158806
     3  C   -0.010614  -0.001066   0.361242   0.016665  -0.027671   0.001190
     4  C   -0.001753   0.015614   0.012020   0.394453  -0.044174  -0.068098
     5  C    0.003069   0.005056  -0.020863  -0.074567   0.388992   0.019638
     6  C    0.021165  -0.011591   0.014403   0.017113  -0.009284   0.489383
     7  O   -0.006666  -0.035137  -0.053104   0.006018   0.011041   0.010351
     8  O   -0.045578   0.009054  -0.043119  -0.000915  -0.004897  -0.001484
     9  O   -0.000237  -0.002604  -0.000027  -0.014884  -0.000429  -0.064264
    10  O   -0.000035  -0.000404  -0.000706  -0.050350   0.000112  -0.004261
    11  O    0.000028   0.000065  -0.003465  -0.004414  -0.041698  -0.000431
    12  H   -0.036529   0.001644  -0.000250   0.000001  -0.000060   0.001903
    13  H    0.538392  -0.002394   0.000657   0.000003  -0.000029   0.000136
    14  H   -0.002394   0.484873   0.000022  -0.000009   0.000013   0.002404
    15  H    0.000657   0.000022   0.529302  -0.000287  -0.000271   0.000001
    16  H    0.000003  -0.000009  -0.000287   0.550752   0.004105   0.004154
    17  H   -0.000029   0.000013  -0.000271   0.004105   0.527314   0.001762
    18  H    0.000136   0.002404   0.000001   0.004154   0.001762   0.520214
    19  H    0.000000   0.000720   0.000000   0.004794   0.000010   0.006896
    20  H    0.000000  -0.000006   0.000005  -0.003905   0.000102  -0.000828
    21  H    0.000000   0.000000   0.002563   0.000168  -0.006529   0.000005
             19         20         21
     1  C    0.011883  -0.000087   0.000621
     2  C   -0.073769   0.017334  -0.002612
     3  C   -0.000818  -0.010805  -0.038202
     4  C   -0.040428   0.009538   0.022052
     5  C    0.011131   0.048093   0.032533
     6  C    0.085408  -0.072410  -0.004307
     7  O    0.002991   0.000113  -0.001186
     8  O   -0.000174   0.000124   0.000310
     9  O    0.244725   0.019907   0.000009
    10  O   -0.002293   0.236491  -0.001492
    11  O   -0.000142  -0.000808   0.240050
    12  H   -0.000001  -0.000002   0.000000
    13  H    0.000000   0.000000   0.000000
    14  H    0.000720  -0.000006   0.000000
    15  H    0.000000   0.000005   0.002563
    16  H    0.004794  -0.003905   0.000168
    17  H    0.000010   0.000102  -0.006529
    18  H    0.006896  -0.000828   0.000005
    19  H    0.366156  -0.000726   0.000000
    20  H   -0.000726   0.370971   0.000026
    21  H    0.000000   0.000026   0.365393
 Mulliken atomic charges:
              1
     1  C   -0.255748
     2  C    0.347953
     3  C   -0.035520
     4  C    0.010352
     5  C    0.045354
     6  C   -0.194995
     7  O   -0.356120
     8  O   -0.374607
     9  O   -0.557733
    10  O   -0.545866
    11  O   -0.555164
    12  H    0.180840
    13  H    0.177510
    14  H    0.199506
    15  H    0.183814
    16  H    0.182586
    17  H    0.192876
    18  H    0.193855
    19  H    0.383637
    20  H    0.386873
    21  H    0.390598
 Sum of Mulliken atomic charges =   0.00000
 Mulliken charges with hydrogens summed into heavy atoms:
              1
     1  C    0.102602
     2  C    0.547458
     3  C    0.148294
     4  C    0.192937
     5  C    0.238230
     6  C   -0.001140
     7  O   -0.356120
     8  O   -0.374607
     9  O   -0.174095
    10  O   -0.158994
    11  O   -0.164566
 Sum of Mulliken charges with hydrogens summed into heavy atoms =   0.00000
 Electronic spatial extent (au):  <R**2>=           1512.0172
 Charge=              0.0000 electrons
 Dipole moment (field-independent basis, Debye):
    X=              2.2952    Y=             -1.3025    Z=              0.4745  Tot=              2.6814
 Quadrupole moment (field-independent basis, Debye-Ang):
   XX=            -69.6949   YY=            -58.3613   ZZ=            -66.5559
   XY=              0.5703   XZ=             -2.4056   YZ=             -3.9980
 Traceless Quadrupole moment (field-independent basis, Debye-Ang):
   XX=             -4.8242   YY=              6.5094   ZZ=             -1.6852
   XY=              0.5703   XZ=             -2.4056   YZ=             -3.9980
 Octapole moment (field-independent basis, Debye-Ang**2):
  XXX=              9.9104  YYY=             50.9000  ZZZ=              1.3060  XYY=              5.2354
  XXY=            -27.6999  XXZ=              7.9330  XZZ=             -5.5805  YZZ=            -14.7081
  YYZ=              3.7337  XYZ=              9.8636
 Hexadecapole moment (field-independent basis, Debye-Ang**3):
 XXXX=           -859.3831 YYYY=           -685.3544 ZZZZ=           -235.7544 XXXY=             32.9245
 XXXZ=             -6.3167 YYYX=            -18.9128 YYYZ=            -31.6903 ZZZX=            -12.2963
 ZZZY=            -13.2169 XXYY=           -266.7886 XXZZ=           -193.5936 YYZZ=           -146.9229
 XXYZ=              5.0456 YYXZ=              9.5786 ZZXY=              4.8389
 N-N= 7.168323397270D+02 E-N=-2.863534410656D+03  KE= 6.051981141639D+02
 1\1\GINC-COMPUTE-8-6\SP\RmPW1PW91\6-31+G(d,p)\C6H10O5\MMARCARINO.IQUIR
 \12-Apr-2019\0\\# mpw1pw91/6-31+g** nmr scrf=(pcm,solvent=water)\\comm
 ent\\0,1\C,0,2.123074,-0.620488,-0.637436\C,0,1.096669,-1.028461,0.419
 315\C,0,0.955825,1.173718,0.225688\C,0,-1.219881,-0.04993,0.045619\C,0
 ,-0.517777,1.276292,-0.250404\C,0,-0.311363,-1.270358,-0.187413\O,0,1.
 083929,0.174433,1.222519\O,0,1.791218,0.760986,-0.861162\O,0,-0.953855
 ,-2.449236,0.30019\O,0,-2.404223,-0.152834,-0.732109\O,0,-1.227289,2.2
 8835,0.459798\H,0,2.036984,-1.167642,-1.579744\H,0,3.146431,-0.708195,
 -0.253726\H,0,1.407064,-1.861254,1.052585\H,0,1.310164,2.12426,0.63580
 8\H,0,-1.467246,-0.028028,1.119003\H,0,-0.525562,1.471773,-1.330333\H,
 0,-0.228193,-1.439191,-1.265755\H,0,-1.067023,-2.353395,1.261745\H,0,-
 2.751878,-1.045709,-0.562245\H,0,-0.938266,3.149159,0.116553\\Version=
 EM64L-G09RevC.01\State=1-A\HF=-610.6433986\RMSD=4.331e-09\Dipole=0.903
 013,-0.5124579,0.1866766\Quadrupole=-3.5866758,4.8395659,-1.2528902,0.
 4239684,-1.7885408,-2.9724105\PG=C01 [X(C6H10O5)]\\@


 YOU CAN WIPE THE SLATE CLEAN, BUT YOU'LL STILL
 HAVE TO EAT A LITTLE CHALK DUST.
 Job cpu time:  0 days  0 hours 19 minutes 58.0 seconds.
 File lengths (MBytes):  RWF=     83 Int=      0 D2E=      0 Chk=      5 Scr=      1
 Normal termination of Gaussian 09 at Fri Apr 12 10:03:20 2019.
