 Entering Gaussian System, Link 0=g09
 Input=/home/mmarcarino.iquir/NMR/01_RSR_Levo25_OPTB_nmr.gjc
 Output=/home/mmarcarino.iquir/NMR/01_RSR_Levo25_OPTB_nmr.log
 Initial command:
 /share/apps/Gaussian09/EM64T.SSE4.2-enabled/g09/l1.exe /tmp/Gau-29477.inp -scrdir=/tmp/
 Entering Link 1 = /share/apps/Gaussian09/EM64T.SSE4.2-enabled/g09/l1.exe PID=     29478.
  
 Copyright (c) 1988,1990,1992,1993,1995,1998,2003,2009,2011,
            Gaussian, Inc.  All Rights Reserved.
  
 This is part of the Gaussian(R) 09 program.  It is based on
 the Gaussian(R) 03 system (copyright 2003, Gaussian, Inc.),
 the Gaussian(R) 98 system (copyright 1998, Gaussian, Inc.),
 the Gaussian(R) 94 system (copyright 1995, Gaussian, Inc.),
 the Gaussian 92(TM) system (copyright 1992, Gaussian, Inc.),
 the Gaussian 90(TM) system (copyright 1990, Gaussian, Inc.),
 the Gaussian 88(TM) system (copyright 1988, Gaussian, Inc.),
 the Gaussian 86(TM) system (copyright 1986, Carnegie Mellon
 University), and the Gaussian 82(TM) system (copyright 1983,
 Carnegie Mellon University). Gaussian is a federally registered
 trademark of Gaussian, Inc.
  
 This software contains proprietary and confidential information,
 including trade secrets, belonging to Gaussian, Inc.
  
 This software is provided under written license and may be
 used, copied, transmitted, or stored only in accord with that
 written license.
  
 The following legend is applicable only to US Government
 contracts under FAR:
  
                    RESTRICTED RIGHTS LEGEND
  
 Use, reproduction and disclosure by the US Government is
 subject to restrictions as set forth in subparagraphs (a)
 and (c) of the Commercial Computer Software - Restricted
 Rights clause in FAR 52.227-19.
  
 Gaussian, Inc.
 340 Quinnipiac St., Bldg. 40, Wallingford CT 06492
  
  
 ---------------------------------------------------------------
 Warning -- This program may not be used in any manner that
 competes with the business of Gaussian, Inc. or will provide
 assistance to any competitor of Gaussian, Inc.  The licensee
 of this program is prohibited from giving any competitor of
 Gaussian, Inc. access to this program.  By using this program,
 the user acknowledges that Gaussian, Inc. is engaged in the
 business of creating and licensing software in the field of
 computational chemistry and represents and warrants to the
 licensee that it is not a competitor of Gaussian, Inc. and that
 it will not use this program in any manner prohibited above.
 ---------------------------------------------------------------
  

 Cite this work as:
 Gaussian 09, Revision C.01,
 M. J. Frisch, G. W. Trucks, H. B. Schlegel, G. E. Scuseria, 
 M. A. Robb, J. R. Cheeseman, G. Scalmani, V. Barone, B. Mennucci, 
 G. A. Petersson, H. Nakatsuji, M. Caricato, X. Li, H. P. Hratchian, 
 A. F. Izmaylov, J. Bloino, G. Zheng, J. L. Sonnenberg, M. Hada, 
 M. Ehara, K. Toyota, R. Fukuda, J. Hasegawa, M. Ishida, T. Nakajima, 
 Y. Honda, O. Kitao, H. Nakai, T. Vreven, J. A. Montgomery, Jr., 
 J. E. Peralta, F. Ogliaro, M. Bearpark, J. J. Heyd, E. Brothers, 
 K. N. Kudin, V. N. Staroverov, T. Keith, R. Kobayashi, J. Normand, 
 K. Raghavachari, A. Rendell, J. C. Burant, S. S. Iyengar, J. Tomasi, 
 M. Cossi, N. Rega, J. M. Millam, M. Klene, J. E. Knox, J. B. Cross, 
 V. Bakken, C. Adamo, J. Jaramillo, R. Gomperts, R. E. Stratmann, 
 O. Yazyev, A. J. Austin, R. Cammi, C. Pomelli, J. W. Ochterski, 
 R. L. Martin, K. Morokuma, V. G. Zakrzewski, G. A. Voth, 
 P. Salvador, J. J. Dannenberg, S. Dapprich, A. D. Daniels, 
 O. Farkas, J. B. Foresman, J. V. Ortiz, J. Cioslowski, 
 and D. J. Fox, Gaussian, Inc., Wallingford CT, 2010.
 
 ******************************************
 Gaussian 09:  EM64L-G09RevC.01 23-Sep-2011
                12-Apr-2019 
 ******************************************
 %nprocshared=4
 Will use up to    4 processors via shared memory.
 ------------------------------------------------
 # mpw1pw91/6-31+g** nmr scrf=(pcm,solvent=water)
 ------------------------------------------------
 1/38=1/1;
 2/12=2,17=6,18=5,40=1/2;
 3/5=1,6=6,7=111,11=2,16=1,25=1,30=1,70=2201,72=1,74=-7/1,2,8,3;
 4//1;
 5/5=2,38=5,53=1/2;
 8/6=1,10=90,11=11/1;
 10/13=100,45=16/2;
 6/7=2,8=2,9=2,10=2,28=1/1;
 99/9=1/99;
 -------
 comment
 -------
 Charge =  0 Multiplicity = 1
 Symbolic Z-Matrix:
 6                     1.95978   0.69127  -0.09193 
 6                     0.63081   1.11794  -0.71338 
 6                     0.63131  -1.11047  -0.68239 
 6                    -0.72812  -0.02909   1.13514 
 6                    -0.60938  -1.26874   0.21941 
 6                    -0.51949   1.26924   0.30268 
 8                     0.37969  -0.03258  -1.56447 
 8                     1.77644  -0.73773   0.0968 
 8                    -1.72446   1.63344  -0.36761 
 8                     0.15634  -0.12189   2.24749 
 8                    -1.77752  -1.37861  -0.60478 
 1                     2.17259   1.15031   0.87548 
 1                     2.79624   0.8615   -0.77608 
 1                     0.69957   1.99541  -1.35745 
 1                     0.85046  -2.00428  -1.27272 
 1                    -1.74228   0.00872   1.54535 
 1                    -0.53038  -2.16977   0.83789 
 1                    -0.28067   2.08817   0.98956 
 1                    -2.11184   0.80919  -0.71025 
 1                     0.98734  -0.50076   1.90757 
 1                    -1.51435  -1.16043  -1.51607 
 
                          Input orientation:                          
 ---------------------------------------------------------------------
 Center     Atomic      Atomic             Coordinates (Angstroms)
 Number     Number       Type             X           Y           Z
 ---------------------------------------------------------------------
      1          6           0        1.959782    0.691266   -0.091926
      2          6           0        0.630805    1.117941   -0.713380
      3          6           0        0.631314   -1.110469   -0.682385
      4          6           0       -0.728124   -0.029086    1.135140
      5          6           0       -0.609378   -1.268740    0.219412
      6          6           0       -0.519491    1.269235    0.302683
      7          8           0        0.379687   -0.032576   -1.564471
      8          8           0        1.776442   -0.737734    0.096800
      9          8           0       -1.724460    1.633443   -0.367610
     10          8           0        0.156335   -0.121887    2.247493
     11          8           0       -1.777520   -1.378614   -0.604780
     12          1           0        2.172585    1.150305    0.875479
     13          1           0        2.796243    0.861502   -0.776082
     14          1           0        0.699572    1.995407   -1.357445
     15          1           0        0.850457   -2.004276   -1.272721
     16          1           0       -1.742280    0.008722    1.545348
     17          1           0       -0.530377   -2.169768    0.837886
     18          1           0       -0.280670    2.088166    0.989560
     19          1           0       -2.111840    0.809188   -0.710248
     20          1           0        0.987342   -0.500759    1.907567
     21          1           0       -1.514354   -1.160434   -1.516068
 ---------------------------------------------------------------------
                    Distance matrix (angstroms):
                    1          2          3          4          5
     1  C    0.000000
     2  C    1.527886   0.000000
     3  C    2.315106   2.228626   0.000000
     4  C    3.041289   2.565031   2.514132   0.000000
     5  C    3.246404   2.846823   1.541948   1.545769   0.000000
     6  C    2.576152   1.542224   2.820940   1.556326   2.540931
     7  O    2.277946   1.452964   1.415360   2.918074   2.385076
     8  O    1.453022   2.326458   1.434357   2.802353   2.447272
     9  O    3.812786   2.435687   3.630125   2.452539   3.163964
    10  O    3.063743   3.244852   3.128432   1.424152   2.452489
    11  O    4.302888   3.470535   2.424955   2.439217   1.433848
    12  H    1.091730   2.214183   3.148580   3.142053   3.744532
    13  H    1.093945   2.181471   2.929909   4.106955   4.138501
    14  H    2.211436   1.090640   3.179124   3.514238   3.854151
    15  H    3.144968   3.179520   1.093349   3.491574   2.213276
    16  H    4.105094   3.458866   3.442286   1.094629   2.161824
    17  H    3.905247   3.816255   2.186976   2.170250   1.095720
    18  H    2.853168   2.161511   3.722685   2.168909   3.459768
    19  H    4.119992   2.759971   3.348246   2.454146   2.727535
    20  H    2.522803   3.101076   2.684465   1.939573   2.447279
    21  H    4.186478   3.230636   2.302480   2.987810   1.960256
                    6          7          8          9         10
     6  C    0.000000
     7  O    2.447345   0.000000
     8  O    3.056407   2.282103   0.000000
     9  O    1.426145   2.938627   4.253760   0.000000
    10  O    2.484803   3.819546   2.762154   3.668424   0.000000
    11  O    3.068751   2.717787   3.678802   3.021846   3.668054
    12  H    2.754907   3.250699   2.080375   4.118938   2.750665
    13  H    3.510566   2.694564   2.087935   4.604291   4.132575
    14  H    2.183911   2.063468   3.277886   2.643241   4.215877
    15  H    3.882593   2.048010   2.082586   4.547793   4.051802
    16  H    2.151354   3.765026   3.877743   2.509869   2.028498
    17  H    3.480417   3.341725   2.814488   4.164549   2.579221
    18  H    1.095209   3.384774   3.607553   2.033030   2.580253
    19  H    1.942485   2.765135   4.261811   0.973068   3.841842
    20  H    2.824726   3.555768   1.989400   4.133415   0.974508
    21  H    3.193885   2.204948   3.689086   3.028011   4.246666
                   11         12         13         14         15
    11  O    0.000000
    12  H    4.918326   0.000000
    13  H    5.095760   1.788857   0.000000
    14  H    4.252823   2.805337   2.453518   0.000000
    15  H    2.782779   4.039080   3.499345   4.003425   0.000000
    16  H    2.559100   4.132566   5.168603   4.282028   4.326195
    17  H    2.064601   4.281390   4.781202   4.866306   2.527598
    18  H    4.098908   2.628889   3.753610   2.545174   4.810971
    19  H    2.215710   4.581178   4.908803   3.119298   4.123974
    20  H    3.837575   2.279478   3.511389   4.119947   3.520445
    21  H    0.973296   4.965132   4.818408   3.858233   2.522621
                   16         17         18         19         20
    16  H    0.000000
    17  H    2.591338   0.000000
    18  H    2.601786   4.267946   0.000000
    19  H    2.421783   3.711054   2.806834   0.000000
    20  H    2.800287   2.496654   3.025413   4.263079   0.000000
    21  H    3.284988   2.743732   4.284104   2.210372   4.291262
                   21
    21  H    0.000000
 Stoichiometry    C6H10O5
 Framework group  C1[X(C6H10O5)]
 Deg. of freedom    57
 Full point group                 C1      NOp   1
 Largest Abelian subgroup         C1      NOp   1
 Largest concise Abelian subgroup C1      NOp   1
                         Standard orientation:                         
 ---------------------------------------------------------------------
 Center     Atomic      Atomic             Coordinates (Angstroms)
 Number     Number       Type             X           Y           Z
 ---------------------------------------------------------------------
      1          6           0        1.959782    0.691266   -0.091926
      2          6           0        0.630805    1.117941   -0.713380
      3          6           0        0.631314   -1.110469   -0.682385
      4          6           0       -0.728124   -0.029086    1.135140
      5          6           0       -0.609378   -1.268740    0.219412
      6          6           0       -0.519491    1.269235    0.302683
      7          8           0        0.379687   -0.032576   -1.564471
      8          8           0        1.776442   -0.737734    0.096800
      9          8           0       -1.724460    1.633443   -0.367610
     10          8           0        0.156335   -0.121887    2.247493
     11          8           0       -1.777520   -1.378614   -0.604780
     12          1           0        2.172585    1.150305    0.875479
     13          1           0        2.796243    0.861502   -0.776082
     14          1           0        0.699572    1.995407   -1.357445
     15          1           0        0.850457   -2.004276   -1.272721
     16          1           0       -1.742280    0.008722    1.545348
     17          1           0       -0.530377   -2.169768    0.837886
     18          1           0       -0.280670    2.088166    0.989560
     19          1           0       -2.111840    0.809188   -0.710248
     20          1           0        0.987342   -0.500759    1.907567
     21          1           0       -1.514354   -1.160434   -1.516068
 ---------------------------------------------------------------------
 Rotational constants (GHZ):      1.4441392      1.2068249      1.1922289
 Standard basis: 6-31+G(d,p) (6D, 7F)
 There are   259 symmetry adapted basis functions of A   symmetry.
 Integral buffers will be    131072 words long.
 Raffenetti 2 integral format.
 Two-electron integral symmetry is turned on.
   259 basis functions,   422 primitive gaussians,   259 cartesian basis functions
    43 alpha electrons       43 beta electrons
       nuclear repulsion energy       740.3153451594 Hartrees.
 NAtoms=   21 NActive=   21 NUniq=   21 SFac= 1.00D+00 NAtFMM=   60 NAOKFM=F Big=F
 ------------------------------------------------------------------------------
 Polarizable Continuum Model (PCM)
 =================================
 Model                : PCM.
 Atomic radii         : UFF (Universal Force Field).
 Polarization charges : Total charges.
 Charge compensation  : None.
 Solution method      : Matrix inversion.
 Cavity type          : Scaled VdW (van der Waals Surface) (Alpha=1.100).
 Cavity algorithm     : GePol (No added spheres)
                        Default sphere list used, NSphG=   21.
                        Lebedev-Laikov grids with approx.  5.0 points / Ang**2.
                        Smoothing algorithm: Karplus/York (Gamma=1.0000).
                        Polarization charges: spherical gaussians, with
                                              point-specific exponents (IZeta= 3).
                        Self-potential: point-specific (ISelfS= 7).
                        Self-field    : sphere-specific E.n sum rule (ISelfD= 2).
 Solvent              : Water, Eps=  78.355300 Eps(inf)=   1.777849
 ------------------------------------------------------------------------------
 One-electron integrals computed using PRISM.
 NBasis=   259 RedAO= T  NBF=   259
 NBsUse=   259 1.00D-06 NBFU=   259
 Harris functional with IExCor=  908 diagonalized for initial guess.
 ExpMin= 4.38D-02 ExpMax= 5.48D+03 ExpMxC= 8.25D+02 IAcc=2 IRadAn=         4 AccDes= 0.00D+00
 HarFok:  IExCor=  908 AccDes= 0.00D+00 IRadAn=         4 IDoV= 1
 ScaDFX=  1.000000  1.000000  1.000000  1.000000
 FoFCou: FMM=F IPFlag=           0 FMFlag=      100000 FMFlg1=           0
         NFxFlg=           0 DoJE=T BraDBF=F KetDBF=T FulRan=T
         Omega=  0.000000  0.000000  1.000000  0.000000  0.000000 ICntrl=     500 IOpCl=  0
         NMat0=    1 NMatS0=    1 NMatT0=    0 NMatD0=    1 NMtDS0=    0 NMtDT0=    0
         I1Cent=           4 NGrid=           0.
 Petite list used in FoFCou.
 Initial guess orbital symmetries:
       Occupied  (A) (A) (A) (A) (A) (A) (A) (A) (A) (A) (A) (A)
                 (A) (A) (A) (A) (A) (A) (A) (A) (A) (A) (A) (A)
                 (A) (A) (A) (A) (A) (A) (A) (A) (A) (A) (A) (A)
                 (A) (A) (A) (A) (A) (A) (A)
       Virtual   (A) (A) (A) (A) (A) (A) (A) (A) (A) (A) (A) (A)
                 (A) (A) (A) (A) (A) (A) (A) (A) (A) (A) (A) (A)
                 (A) (A) (A) (A) (A) (A) (A) (A) (A) (A) (A) (A)
                 (A) (A) (A) (A) (A) (A) (A) (A) (A) (A) (A) (A)
                 (A) (A) (A) (A) (A) (A) (A) (A) (A) (A) (A) (A)
                 (A) (A) (A) (A) (A) (A) (A) (A) (A) (A) (A) (A)
                 (A) (A) (A) (A) (A) (A) (A) (A) (A) (A) (A) (A)
                 (A) (A) (A) (A) (A) (A) (A) (A) (A) (A) (A) (A)
                 (A) (A) (A) (A) (A) (A) (A) (A) (A) (A) (A) (A)
                 (A) (A) (A) (A) (A) (A) (A) (A) (A) (A) (A) (A)
                 (A) (A) (A) (A) (A) (A) (A) (A) (A) (A) (A) (A)
                 (A) (A) (A) (A) (A) (A) (A) (A) (A) (A) (A) (A)
                 (A) (A) (A) (A) (A) (A) (A) (A) (A) (A) (A) (A)
                 (A) (A) (A) (A) (A) (A) (A) (A) (A) (A) (A) (A)
                 (A) (A) (A) (A) (A) (A) (A) (A) (A) (A) (A) (A)
                 (A) (A) (A) (A) (A) (A) (A) (A) (A) (A) (A) (A)
                 (A) (A) (A) (A) (A) (A) (A) (A) (A) (A) (A) (A)
                 (A) (A) (A) (A) (A) (A) (A) (A) (A) (A) (A) (A)
 The electronic state of the initial guess is 1-A.
 Requested convergence on RMS density matrix=1.00D-08 within 128 cycles.
 Requested convergence on MAX density matrix=1.00D-06.
 Requested convergence on             energy=1.00D-06.
 No special actions if energy rises.
 Error on total polarization charges =  0.01150
 SCF Done:  E(RmPW1PW91) =  -610.645370406     A.U. after   12 cycles
             Convg  =    0.6239D-08             -V/T =  2.0090
 Range of M.O.s used for correlation:     1   259
 NBasis=   259 NAE=    43 NBE=    43 NFC=     0 NFV=     0
 NROrb=    259 NOA=    43 NOB=    43 NVA=   216 NVB=   216

 **** Warning!!: The largest alpha MO coefficient is  0.69607944D+02

 NEqPCM:  Using equilibrium solvation (IEInf=0, Eps=  78.3553, EpsInf=   1.7778)
          Differentiating once with respect to magnetic field using GIAOs.
          Electric field/nuclear overlap derivatives assumed to be zero.
 FoFCou: FMM=F IPFlag=           0 FMFlag=    10101102 FMFlg1=           0
         NFxFlg=    40000000 DoJE=F BraDBF=F KetDBF=T FulRan=T
         Omega=  0.000000  0.000000  1.000000  0.000000  0.000000 ICntrl=    6100 IOpCl=  0
         NMat0=    1 NMatS0=    1 NMatT0=    0 NMatD0=    1 NMtDS0=    0 NMtDT0=    0
         I1Cent=           7 NGrid=        1482.
 Symmetry not used in FoFCou.
          There are     3 degrees of freedom in the 1st order CPHF.  IDoFFX=0.
      3 vectors produced by pass  0 Test12= 3.10D-13 3.33D-08 XBig12= 1.73D+01 8.75D-01.
 AX will form     3 AO Fock derivatives at one time.
      3 vectors produced by pass  1 Test12= 3.10D-13 3.33D-08 XBig12= 4.15D-02 3.29D-02.
      3 vectors produced by pass  2 Test12= 3.10D-13 3.33D-08 XBig12= 7.90D-05 1.02D-03.
      3 vectors produced by pass  3 Test12= 3.10D-13 3.33D-08 XBig12= 3.43D-07 1.09D-04.
      3 vectors produced by pass  4 Test12= 3.10D-13 3.33D-08 XBig12= 1.19D-09 7.09D-06.
      3 vectors produced by pass  5 Test12= 3.10D-13 3.33D-08 XBig12= 4.40D-12 3.72D-07.
 Inverted reduced A of dimension    18 with in-core refinement.
 Calculating GIAO nuclear magnetic shielding tensors.
 SCF GIAO Magnetic shielding tensor (ppm):
      1  C    Isotropic =   128.8335   Anisotropy =    61.1279
   XX=   116.0712   YX=     8.4513   ZX=     8.1873
   XY=    -0.6909   YY=   167.8689   ZY=   -13.3882
   XZ=     1.6644   YZ=    -6.8750   ZZ=   102.5603
   Eigenvalues:    99.2440   117.6710   169.5854
      2  C    Isotropic =   114.7828   Anisotropy =    44.9138
   XX=   109.7241   YX=     2.5121   ZX=    12.3341
   XY=     2.0157   YY=   126.8607   ZY=    19.7521
   XZ=    -0.5828   YZ=    29.9821   ZZ=   107.7638
   Eigenvalues:    90.0151   109.6081   144.7253
      3  C    Isotropic =    93.1962   Anisotropy =    40.1895
   XX=   104.9097   YX=    12.8844   ZX=    25.1527
   XY=     8.8475   YY=    83.1051   ZY=    -3.2925
   XZ=    15.9344   YZ=   -19.2621   ZZ=    91.5738
   Eigenvalues:    63.9972    95.6022   119.9892
      4  C    Isotropic =   122.3295   Anisotropy =    52.6916
   XX=   140.7817   YX=     0.4727   ZX=    31.0713
   XY=     2.8988   YY=   104.5415   ZY=    -6.2223
   XZ=    17.6951   YZ=    -4.1151   ZZ=   121.6651
   Eigenvalues:    99.5410   109.9902   157.4572
      5  C    Isotropic =   125.1723   Anisotropy =    51.4189
   XX=   133.1025   YX=    -3.4308   ZX=    25.8502
   XY=    -4.4860   YY=   117.1887   ZY=    -1.0317
   XZ=    33.9538   YZ=     3.0424   ZZ=   125.2257
   Eigenvalues:    98.3982   117.6672   159.4516
      6  C    Isotropic =   122.0170   Anisotropy =    49.9671
   XX=   135.4530   YX=    -6.6621   ZX=    20.9704
   XY=    -2.5743   YY=   105.0512   ZY=    -0.8837
   XZ=    26.5459   YZ=    -4.5688   ZZ=   125.5468
   Eigenvalues:   104.1841   106.5385   155.3284
      7  O    Isotropic =   256.1712   Anisotropy =    68.5627
   XX=   250.7964   YX=    28.8578   ZX=    33.3961
   XY=    15.0039   YY=   283.8519   ZY=   -14.6825
   XZ=    64.8079   YZ=    -0.6985   ZZ=   233.8654
   Eigenvalues:   188.2560   278.3780   301.8797
      8  O    Isotropic =   264.7108   Anisotropy =   103.9958
   XX=   265.0208   YX=     3.2977   ZX=    70.1706
   XY=     9.2679   YY=   286.3469   ZY=   -21.6346
   XZ=    71.1543   YZ=   -50.9687   ZZ=   242.7646
   Eigenvalues:   173.2974   286.7937   334.0413
      9  O    Isotropic =   284.8154   Anisotropy =    44.9178
   XX=   282.8911   YX=     1.6773   ZX=     6.9822
   XY=   -10.9936   YY=   291.7722   ZY=   -18.9920
   XZ=    20.0882   YZ=   -28.1211   ZZ=   279.7829
   Eigenvalues:   258.6184   281.0672   314.7606
     10  O    Isotropic =   288.1983   Anisotropy =    39.4915
   XX=   288.3802   YX=   -14.4840   ZX=    23.2703
   XY=   -10.6599   YY=   275.6431   ZY=     6.6876
   XZ=    13.5152   YZ=    -0.5497   ZZ=   300.5716
   Eigenvalues:   263.1480   286.9209   314.5260
     11  O    Isotropic =   292.8643   Anisotropy =    35.7572
   XX=   300.9599   YX=    20.6231   ZX=    -1.9030
   XY=    26.3111   YY=   262.8814   ZY=    15.5526
   XZ=     0.6151   YZ=    -1.5902   ZZ=   314.7516
   Eigenvalues:   251.0212   310.8692   316.7024
     12  H    Isotropic =    27.3397   Anisotropy =     7.0765
   XX=    27.5410   YX=     2.7970   ZX=     0.9168
   XY=     3.3310   YY=    27.6813   ZY=     3.0360
   XZ=     2.1411   YZ=     1.4914   ZZ=    26.7969
   Eigenvalues:    24.3614    25.6004    32.0574
     13  H    Isotropic =    27.6012   Anisotropy =    11.3548
   XX=    31.3506   YX=     3.1553   ZX=    -3.1042
   XY=     3.9269   YY=    27.2190   ZY=    -2.8106
   XZ=    -4.1207   YZ=    -2.3457   ZZ=    24.2340
   Eigenvalues:    22.3914    25.2411    35.1711
     14  H    Isotropic =    26.9437   Anisotropy =     7.9767
   XX=    24.5468   YX=     1.9532   ZX=    -1.6144
   XY=     0.6283   YY=    31.0483   ZY=    -3.1226
   XZ=    -0.5859   YZ=    -1.7437   ZZ=    25.2361
   Eigenvalues:    23.7002    24.8695    32.2615
     15  H    Isotropic =    25.9444   Anisotropy =     7.9186
   XX=    24.1508   YX=    -1.0736   ZX=    -0.1742
   XY=    -1.9151   YY=    29.4483   ZY=     3.0209
   XZ=    -0.2694   YZ=     3.2698   ZZ=    24.2341
   Eigenvalues:    22.6092    24.0005    31.2235
     16  H    Isotropic =    27.7992   Anisotropy =     4.9436
   XX=    30.4919   YX=    -0.4218   ZX=    -1.5387
   XY=    -0.2191   YY=    23.9874   ZY=    -0.8133
   XZ=    -0.7523   YZ=    -0.5362   ZZ=    28.9183
   Eigenvalues:    23.8622    28.4405    31.0949
     17  H    Isotropic =    27.8047   Anisotropy =     6.0505
   XX=    26.2036   YX=     0.5905   ZX=     2.6150
   XY=     1.3264   YY=    30.3061   ZY=    -2.8187
   XZ=     1.4091   YZ=    -2.6708   ZZ=    26.9045
   Eigenvalues:    23.5266    28.0491    31.8384
     18  H    Isotropic =    27.9403   Anisotropy =     5.7960
   XX=    27.2710   YX=    -0.4677   ZX=     2.4166
   XY=    -1.5132   YY=    28.7707   ZY=     3.2380
   XZ=     1.2153   YZ=     3.6515   ZZ=    27.7792
   Eigenvalues:    23.6569    28.3596    31.8043
     19  H    Isotropic =    28.7090   Anisotropy =    16.0295
   XX=    29.0082   YX=     3.0895   ZX=     6.1621
   XY=     4.1364   YY=    35.4920   ZY=     4.5834
   XZ=     4.7414   YZ=     4.1863   ZZ=    21.6267
   Eigenvalues:    18.4178    28.3138    39.3953
     20  H    Isotropic =    28.0582   Anisotropy =    16.6007
   XX=    34.7163   YX=    -6.4784   ZX=    -4.5773
   XY=    -6.5881   YY=    19.6241   ZY=     1.3932
   XZ=    -3.4611   YZ=     1.5633   ZZ=    29.8342
   Eigenvalues:    17.1889    27.8604    39.1253
     21  H    Isotropic =    29.4070   Anisotropy =    13.1848
   XX=    27.4778   YX=     3.4070   ZX=    -0.3402
   XY=     3.0529   YY=    22.9398   ZY=    -1.6159
   XZ=    -1.2825   YZ=    -2.2501   ZZ=    37.8036
   Eigenvalues:    21.1513    28.8729    38.1969
 End of Minotr Frequency-dependent properties file   721 does not exist.
 End of Minotr Frequency-dependent properties file   722 does not exist.

 **********************************************************************

            Population analysis using the SCF density.

 **********************************************************************

 Orbital symmetries:
       Occupied  (A) (A) (A) (A) (A) (A) (A) (A) (A) (A) (A) (A)
                 (A) (A) (A) (A) (A) (A) (A) (A) (A) (A) (A) (A)
                 (A) (A) (A) (A) (A) (A) (A) (A) (A) (A) (A) (A)
                 (A) (A) (A) (A) (A) (A) (A)
       Virtual   (A) (A) (A) (A) (A) (A) (A) (A) (A) (A) (A) (A)
                 (A) (A) (A) (A) (A) (A) (A) (A) (A) (A) (A) (A)
                 (A) (A) (A) (A) (A) (A) (A) (A) (A) (A) (A) (A)
                 (A) (A) (A) (A) (A) (A) (A) (A) (A) (A) (A) (A)
                 (A) (A) (A) (A) (A) (A) (A) (A) (A) (A) (A) (A)
                 (A) (A) (A) (A) (A) (A) (A) (A) (A) (A) (A) (A)
                 (A) (A) (A) (A) (A) (A) (A) (A) (A) (A) (A) (A)
                 (A) (A) (A) (A) (A) (A) (A) (A) (A) (A) (A) (A)
                 (A) (A) (A) (A) (A) (A) (A) (A) (A) (A) (A) (A)
                 (A) (A) (A) (A) (A) (A) (A) (A) (A) (A) (A) (A)
                 (A) (A) (A) (A) (A) (A) (A) (A) (A) (A) (A) (A)
                 (A) (A) (A) (A) (A) (A) (A) (A) (A) (A) (A) (A)
                 (A) (A) (A) (A) (A) (A) (A) (A) (A) (A) (A) (A)
                 (A) (A) (A) (A) (A) (A) (A) (A) (A) (A) (A) (A)
                 (A) (A) (A) (A) (A) (A) (A) (A) (A) (A) (A) (A)
                 (A) (A) (A) (A) (A) (A) (A) (A) (A) (A) (A) (A)
                 (A) (A) (A) (A) (A) (A) (A) (A) (A) (A) (A) (A)
                 (A) (A) (A) (A) (A) (A) (A) (A) (A) (A) (A) (A)
 The electronic state is 1-A.
 Alpha  occ. eigenvalues --  -19.28816 -19.28600 -19.27504 -19.26176 -19.26031
 Alpha  occ. eigenvalues --  -10.37047 -10.32232 -10.31975 -10.31566 -10.31560
 Alpha  occ. eigenvalues --  -10.31538  -1.15472  -1.08228  -1.06955  -1.06597
 Alpha  occ. eigenvalues --   -1.04630  -0.82924  -0.80748  -0.70918  -0.69188
 Alpha  occ. eigenvalues --   -0.66249  -0.61699  -0.59517  -0.55705  -0.53198
 Alpha  occ. eigenvalues --   -0.52253  -0.50309  -0.49615  -0.47628  -0.46757
 Alpha  occ. eigenvalues --   -0.46305  -0.44279  -0.41820  -0.40978  -0.39875
 Alpha  occ. eigenvalues --   -0.38125  -0.37778  -0.37215  -0.34062  -0.33571
 Alpha  occ. eigenvalues --   -0.30404  -0.28913  -0.28418
 Alpha virt. eigenvalues --    0.00747   0.01190   0.02677   0.02812   0.03812
 Alpha virt. eigenvalues --    0.04174   0.04937   0.05228   0.05766   0.08025
 Alpha virt. eigenvalues --    0.08759   0.09678   0.09867   0.10215   0.11270
 Alpha virt. eigenvalues --    0.12000   0.12235   0.13264   0.13311   0.13693
 Alpha virt. eigenvalues --    0.14427   0.15763   0.16691   0.16795   0.17043
 Alpha virt. eigenvalues --    0.18120   0.18656   0.19485   0.19727   0.20070
 Alpha virt. eigenvalues --    0.20809   0.21648   0.22579   0.22852   0.23752
 Alpha virt. eigenvalues --    0.24364   0.25009   0.25724   0.26572   0.27511
 Alpha virt. eigenvalues --    0.27675   0.28613   0.29365   0.30093   0.30162
 Alpha virt. eigenvalues --    0.30746   0.31637   0.32552   0.33132   0.33531
 Alpha virt. eigenvalues --    0.34319   0.35128   0.35303   0.36328   0.36603
 Alpha virt. eigenvalues --    0.37024   0.37787   0.38695   0.39275   0.40537
 Alpha virt. eigenvalues --    0.43220   0.43866   0.45629   0.47561   0.49545
 Alpha virt. eigenvalues --    0.52656   0.64280   0.65592   0.67354   0.68544
 Alpha virt. eigenvalues --    0.69405   0.70518   0.72185   0.75069   0.76758
 Alpha virt. eigenvalues --    0.79705   0.80581   0.82446   0.84860   0.86510
 Alpha virt. eigenvalues --    0.88134   0.92215   0.95404   0.98236   1.00400
 Alpha virt. eigenvalues --    1.02250   1.04842   1.05619   1.06948   1.08654
 Alpha virt. eigenvalues --    1.08829   1.09928   1.11084   1.12192   1.13725
 Alpha virt. eigenvalues --    1.17657   1.20632   1.23799   1.24890   1.27305
 Alpha virt. eigenvalues --    1.28018   1.28681   1.29541   1.31006   1.32619
 Alpha virt. eigenvalues --    1.35457   1.37613   1.38805   1.39860   1.41628
 Alpha virt. eigenvalues --    1.44744   1.45132   1.47069   1.48471   1.49668
 Alpha virt. eigenvalues --    1.53606   1.54483   1.57214   1.59834   1.60604
 Alpha virt. eigenvalues --    1.60988   1.65005   1.66494   1.68147   1.69046
 Alpha virt. eigenvalues --    1.72305   1.72895   1.74750   1.76411   1.78036
 Alpha virt. eigenvalues --    1.80795   1.83827   1.84781   1.87158   1.87377
 Alpha virt. eigenvalues --    1.90298   1.91297   1.93358   1.96285   1.98081
 Alpha virt. eigenvalues --    1.99598   2.03327   2.05360   2.06317   2.07691
 Alpha virt. eigenvalues --    2.09691   2.11380   2.12642   2.15808   2.17905
 Alpha virt. eigenvalues --    2.18744   2.20450   2.23675   2.27549   2.30422
 Alpha virt. eigenvalues --    2.31464   2.34110   2.35637   2.40399   2.43973
 Alpha virt. eigenvalues --    2.45667   2.46297   2.51607   2.52980   2.53336
 Alpha virt. eigenvalues --    2.56221   2.57557   2.59891   2.62695   2.64635
 Alpha virt. eigenvalues --    2.65475   2.66030   2.67225   2.69465   2.71820
 Alpha virt. eigenvalues --    2.72165   2.74107   2.74777   2.76817   2.80598
 Alpha virt. eigenvalues --    2.84281   2.86890   2.87582   2.89218   2.89840
 Alpha virt. eigenvalues --    2.93155   2.96192   2.97847   2.99578   3.01392
 Alpha virt. eigenvalues --    3.04042   3.05548   3.08557   3.18995   3.23794
 Alpha virt. eigenvalues --    3.35199   3.41438   3.46405   3.48920   3.49536
 Alpha virt. eigenvalues --    3.50329   3.52935   3.56393   3.62323   3.62955
 Alpha virt. eigenvalues --    4.31243   4.33863   4.43340   4.50024   4.52008
 Alpha virt. eigenvalues --    4.58439   4.63487   4.81211   4.87547   4.95992
 Alpha virt. eigenvalues --    5.05966
          Condensed to atoms (all electrons):
              1          2          3          4          5          6
     1  C    5.801358  -0.444666  -0.324144  -0.457035   0.295796   0.301238
     2  C   -0.444666   7.229000  -0.432558   1.022094  -0.229237  -1.391535
     3  C   -0.324144  -0.432558   6.370535   0.256511  -0.763123   0.296667
     4  C   -0.457035   1.022094   0.256511   7.393783  -0.794394  -1.355010
     5  C    0.295796  -0.229237  -0.763123  -0.794394   6.949569   0.087246
     6  C    0.301238  -1.391535   0.296667  -1.355010   0.087246   7.520232
     7  O    0.041367  -0.024804   0.221951  -0.271916   0.022785   0.090310
     8  O    0.072653  -0.015565   0.257815   0.068374  -0.276339  -0.021089
     9  O    0.015784  -0.099612  -0.004167   0.010231  -0.037446   0.209300
    10  O    0.028395  -0.043029  -0.048930   0.211294  -0.007320  -0.063082
    11  O    0.000549  -0.069468  -0.114621  -0.177969   0.301024   0.121907
    12  H    0.462935  -0.128396   0.018086  -0.023308   0.010474   0.032957
    13  H    0.357430   0.014148  -0.013835   0.003896   0.000077   0.008543
    14  H    0.021816   0.300278   0.001064  -0.002484  -0.000805   0.020622
    15  H   -0.006973   0.055357   0.337267   0.037857  -0.026343  -0.032732
    16  H    0.005955  -0.007882   0.017024   0.328028  -0.023780   0.011926
    17  H    0.011018  -0.042949  -0.004928  -0.106540   0.375025   0.068255
    18  H    0.022673  -0.012927  -0.040447  -0.049320   0.064922   0.326915
    19  H   -0.000958  -0.025513  -0.019018  -0.053858   0.049335   0.027975
    20  H   -0.000306  -0.005429   0.028550  -0.012557  -0.037704   0.003594
    21  H   -0.000638   0.000957   0.002883  -0.011151  -0.029710   0.015476
              7          8          9         10         11         12
     1  C    0.041367   0.072653   0.015784   0.028395   0.000549   0.462935
     2  C   -0.024804  -0.015565  -0.099612  -0.043029  -0.069468  -0.128396
     3  C    0.221951   0.257815  -0.004167  -0.048930  -0.114621   0.018086
     4  C   -0.271916   0.068374   0.010231   0.211294  -0.177969  -0.023308
     5  C    0.022785  -0.276339  -0.037446  -0.007320   0.301024   0.010474
     6  C    0.090310  -0.021089   0.209300  -0.063082   0.121907   0.032957
     7  O    8.398077  -0.064235   0.014860   0.011088   0.003723   0.011208
     8  O   -0.064235   8.482714   0.002838   0.005322   0.015348  -0.056742
     9  O    0.014860   0.002838   8.210634   0.006551  -0.020345   0.000120
    10  O    0.011088   0.005322   0.006551   8.180477   0.012286   0.000830
    11  O    0.003723   0.015348  -0.020345   0.012286   8.196535  -0.000032
    12  H    0.011208  -0.056742   0.000120   0.000830  -0.000032   0.507696
    13  H   -0.006420  -0.035056  -0.000327  -0.000076   0.000127  -0.031645
    14  H   -0.035334   0.008359   0.001197   0.000239   0.000346   0.001474
    15  H   -0.047473  -0.035163   0.000304  -0.000618   0.004102  -0.000203
    16  H   -0.002776   0.003011   0.001857  -0.044473  -0.000905  -0.000050
    17  H    0.014766  -0.000075  -0.001092   0.008279  -0.043892   0.000003
    18  H    0.011691  -0.003010  -0.043731   0.000122  -0.000199   0.001196
    19  H    0.009462  -0.001088   0.248773   0.000610   0.035256   0.000002
    20  H   -0.002270   0.031111   0.000079   0.259225   0.000894  -0.000949
    21  H    0.023572   0.001666  -0.002631  -0.000052   0.260342  -0.000003
             13         14         15         16         17         18
     1  C    0.357430   0.021816  -0.006973   0.005955   0.011018   0.022673
     2  C    0.014148   0.300278   0.055357  -0.007882  -0.042949  -0.012927
     3  C   -0.013835   0.001064   0.337267   0.017024  -0.004928  -0.040447
     4  C    0.003896  -0.002484   0.037857   0.328028  -0.106540  -0.049320
     5  C    0.000077  -0.000805  -0.026343  -0.023780   0.375025   0.064922
     6  C    0.008543   0.020622  -0.032732   0.011926   0.068255   0.326915
     7  O   -0.006420  -0.035334  -0.047473  -0.002776   0.014766   0.011691
     8  O   -0.035056   0.008359  -0.035163   0.003011  -0.000075  -0.003010
     9  O   -0.000327   0.001197   0.000304   0.001857  -0.001092  -0.043731
    10  O   -0.000076   0.000239  -0.000618  -0.044473   0.008279   0.000122
    11  O    0.000127   0.000346   0.004102  -0.000905  -0.043892  -0.000199
    12  H   -0.031645   0.001474  -0.000203  -0.000050   0.000003   0.001196
    13  H    0.515096  -0.002533   0.000566   0.000003   0.000000  -0.000038
    14  H   -0.002533   0.491195   0.000041  -0.000123   0.000020  -0.001696
    15  H    0.000566   0.000041   0.516248  -0.000124  -0.003004   0.000025
    16  H    0.000003  -0.000123  -0.000124   0.520551  -0.003451  -0.003321
    17  H    0.000000   0.000020  -0.003004  -0.003451   0.528948  -0.000138
    18  H   -0.000038  -0.001696   0.000025  -0.003321  -0.000138   0.533698
    19  H    0.000001  -0.000523  -0.000003  -0.001509   0.000048   0.005143
    20  H    0.000240  -0.000062  -0.000157   0.005032  -0.001217   0.000031
    21  H    0.000003   0.000013  -0.000521   0.000154   0.004386  -0.000035
             19         20         21
     1  C   -0.000958  -0.000306  -0.000638
     2  C   -0.025513  -0.005429   0.000957
     3  C   -0.019018   0.028550   0.002883
     4  C   -0.053858  -0.012557  -0.011151
     5  C    0.049335  -0.037704  -0.029710
     6  C    0.027975   0.003594   0.015476
     7  O    0.009462  -0.002270   0.023572
     8  O   -0.001088   0.031111   0.001666
     9  O    0.248773   0.000079  -0.002631
    10  O    0.000610   0.259225  -0.000052
    11  O    0.035256   0.000894   0.260342
    12  H    0.000002  -0.000949  -0.000003
    13  H    0.000001   0.000240   0.000003
    14  H   -0.000523  -0.000062   0.000013
    15  H   -0.000003  -0.000157  -0.000521
    16  H   -0.001509   0.005032   0.000154
    17  H    0.000048  -0.001217   0.004386
    18  H    0.005143   0.000031  -0.000035
    19  H    0.346634  -0.000018  -0.004129
    20  H   -0.000018   0.331105  -0.000023
    21  H   -0.004129  -0.000023   0.348892
 Mulliken atomic charges:
              1
     1  C   -0.204246
     2  C    0.351737
     3  C   -0.042584
     4  C   -0.016527
     5  C    0.069949
     6  C   -0.279713
     7  O   -0.419631
     8  O   -0.440849
     9  O   -0.513176
    10  O   -0.517137
    11  O   -0.525006
    12  H    0.194346
    13  H    0.189801
    14  H    0.196895
    15  H    0.201546
    16  H    0.194851
    17  H    0.196539
    18  H    0.188447
    19  H    0.383378
    20  H    0.400830
    21  H    0.390550
 Sum of Mulliken atomic charges =   0.00000
 Mulliken charges with hydrogens summed into heavy atoms:
              1
     1  C    0.179901
     2  C    0.548632
     3  C    0.158962
     4  C    0.178324
     5  C    0.266489
     6  C   -0.091266
     7  O   -0.419631
     8  O   -0.440849
     9  O   -0.129799
    10  O   -0.116307
    11  O   -0.134456
 Sum of Mulliken charges with hydrogens summed into heavy atoms =   0.00000
 Electronic spatial extent (au):  <R**2>=           1324.1459
 Charge=              0.0000 electrons
 Dipole moment (field-independent basis, Debye):
    X=              3.0226    Y=             -0.2906    Z=             -1.8659  Tot=              3.5640
 Quadrupole moment (field-independent basis, Debye-Ang):
   XX=            -67.2566   YY=            -64.1841   ZZ=            -70.3801
   XY=              5.4933   XZ=              0.5559   YZ=              1.7632
 Traceless Quadrupole moment (field-independent basis, Debye-Ang):
   XX=              0.0170   YY=              3.0895   ZZ=             -3.1065
   XY=              5.4933   XZ=              0.5559   YZ=              1.7632
 Octapole moment (field-independent basis, Debye-Ang**2):
  XXX=             11.9463  YYY=             -9.2929  ZZZ=            -23.8737  XYY=             19.9957
  XXY=              7.4309  XXZ=             -0.8727  XZZ=             -4.2087  YZZ=             -5.0922
  YYZ=             -1.0634  XYZ=             -1.9974
 Hexadecapole moment (field-independent basis, Debye-Ang**3):
 XXXX=           -662.6353 YYYY=           -505.4225 ZZZZ=           -538.1694 XXXY=             17.7866
 XXXZ=              8.1805 YYYX=             11.7100 YYYZ=              6.3161 ZZZX=             22.5045
 ZZZY=              7.8599 XXYY=           -230.7639 XXZZ=           -161.3007 YYZZ=           -148.3047
 XXYZ=             -0.8246 YYXZ=            -10.8664 ZZXY=              2.6030
 N-N= 7.403153451594D+02 E-N=-2.909804722707D+03  KE= 6.052053418798D+02
 1\1\GINC-COMPUTE-8-11\SP\RmPW1PW91\6-31+G(d,p)\C6H10O5\MMARCARINO.IQUI
 R\12-Apr-2019\0\\# mpw1pw91/6-31+g** nmr scrf=(pcm,solvent=water)\\com
 ment\\0,1\C,0,1.959782,0.691266,-0.091926\C,0,0.630805,1.117941,-0.713
 38\C,0,0.631314,-1.110469,-0.682385\C,0,-0.728124,-0.029086,1.13514\C,
 0,-0.609378,-1.26874,0.219412\C,0,-0.519491,1.269235,0.302683\O,0,0.37
 9687,-0.032576,-1.564471\O,0,1.776442,-0.737734,0.0968\O,0,-1.72446,1.
 633443,-0.36761\O,0,0.156335,-0.121887,2.247493\O,0,-1.77752,-1.378614
 ,-0.60478\H,0,2.172585,1.150305,0.875479\H,0,2.796243,0.861502,-0.7760
 82\H,0,0.699572,1.995407,-1.357445\H,0,0.850457,-2.004276,-1.272721\H,
 0,-1.74228,0.008722,1.545348\H,0,-0.530377,-2.169768,0.837886\H,0,-0.2
 8067,2.088166,0.98956\H,0,-2.11184,0.809188,-0.710248\H,0,0.987342,-0.
 500759,1.907567\H,0,-1.514354,-1.160434,-1.516068\\Version=EM64L-G09Re
 vC.01\State=1-A\HF=-610.6453704\RMSD=6.239e-09\Dipole=1.1891888,-0.114
 3482,-0.7340943\Quadrupole=0.012647,2.2969659,-2.3096129,4.0841027,0.4
 133298,1.3109029\PG=C01 [X(C6H10O5)]\\@


 ALMOST ALL THE CHEMICAL PROCESSES WHICH OCCUR IN NATURE,
 WHETHER IN ANIMAL OR VEGETABLE ORGANISMS,
 OR IN THE NON-LIVING SURFACE OF THE EARTH ... 
 TAKE PLACE BETWEEN SUBSTANCES IN SOLUTION

                                    -- W. OSTWALD, 1890
 Job cpu time:  0 days  0 hours 16 minutes 50.7 seconds.
 File lengths (MBytes):  RWF=     80 Int=      0 D2E=      0 Chk=      5 Scr=      1
 Normal termination of Gaussian 09 at Fri Apr 12 10:26:03 2019.
