 Entering Gaussian System, Link 0=g09
 Input=/home/mmarcarino.iquir/NMR/01_RSR_Levo19_OPTB_nmr.gjc
 Output=/home/mmarcarino.iquir/NMR/01_RSR_Levo19_OPTB_nmr.log
 Initial command:
 /share/apps/Gaussian09/EM64T.SSE4.2-enabled/g09/l1.exe /tmp/Gau-55221.inp -scrdir=/tmp/
 Entering Link 1 = /share/apps/Gaussian09/EM64T.SSE4.2-enabled/g09/l1.exe PID=     55222.
  
 Copyright (c) 1988,1990,1992,1993,1995,1998,2003,2009,2011,
            Gaussian, Inc.  All Rights Reserved.
  
 This is part of the Gaussian(R) 09 program.  It is based on
 the Gaussian(R) 03 system (copyright 2003, Gaussian, Inc.),
 the Gaussian(R) 98 system (copyright 1998, Gaussian, Inc.),
 the Gaussian(R) 94 system (copyright 1995, Gaussian, Inc.),
 the Gaussian 92(TM) system (copyright 1992, Gaussian, Inc.),
 the Gaussian 90(TM) system (copyright 1990, Gaussian, Inc.),
 the Gaussian 88(TM) system (copyright 1988, Gaussian, Inc.),
 the Gaussian 86(TM) system (copyright 1986, Carnegie Mellon
 University), and the Gaussian 82(TM) system (copyright 1983,
 Carnegie Mellon University). Gaussian is a federally registered
 trademark of Gaussian, Inc.
  
 This software contains proprietary and confidential information,
 including trade secrets, belonging to Gaussian, Inc.
  
 This software is provided under written license and may be
 used, copied, transmitted, or stored only in accord with that
 written license.
  
 The following legend is applicable only to US Government
 contracts under FAR:
  
                    RESTRICTED RIGHTS LEGEND
  
 Use, reproduction and disclosure by the US Government is
 subject to restrictions as set forth in subparagraphs (a)
 and (c) of the Commercial Computer Software - Restricted
 Rights clause in FAR 52.227-19.
  
 Gaussian, Inc.
 340 Quinnipiac St., Bldg. 40, Wallingford CT 06492
  
  
 ---------------------------------------------------------------
 Warning -- This program may not be used in any manner that
 competes with the business of Gaussian, Inc. or will provide
 assistance to any competitor of Gaussian, Inc.  The licensee
 of this program is prohibited from giving any competitor of
 Gaussian, Inc. access to this program.  By using this program,
 the user acknowledges that Gaussian, Inc. is engaged in the
 business of creating and licensing software in the field of
 computational chemistry and represents and warrants to the
 licensee that it is not a competitor of Gaussian, Inc. and that
 it will not use this program in any manner prohibited above.
 ---------------------------------------------------------------
  

 Cite this work as:
 Gaussian 09, Revision C.01,
 M. J. Frisch, G. W. Trucks, H. B. Schlegel, G. E. Scuseria, 
 M. A. Robb, J. R. Cheeseman, G. Scalmani, V. Barone, B. Mennucci, 
 G. A. Petersson, H. Nakatsuji, M. Caricato, X. Li, H. P. Hratchian, 
 A. F. Izmaylov, J. Bloino, G. Zheng, J. L. Sonnenberg, M. Hada, 
 M. Ehara, K. Toyota, R. Fukuda, J. Hasegawa, M. Ishida, T. Nakajima, 
 Y. Honda, O. Kitao, H. Nakai, T. Vreven, J. A. Montgomery, Jr., 
 J. E. Peralta, F. Ogliaro, M. Bearpark, J. J. Heyd, E. Brothers, 
 K. N. Kudin, V. N. Staroverov, T. Keith, R. Kobayashi, J. Normand, 
 K. Raghavachari, A. Rendell, J. C. Burant, S. S. Iyengar, J. Tomasi, 
 M. Cossi, N. Rega, J. M. Millam, M. Klene, J. E. Knox, J. B. Cross, 
 V. Bakken, C. Adamo, J. Jaramillo, R. Gomperts, R. E. Stratmann, 
 O. Yazyev, A. J. Austin, R. Cammi, C. Pomelli, J. W. Ochterski, 
 R. L. Martin, K. Morokuma, V. G. Zakrzewski, G. A. Voth, 
 P. Salvador, J. J. Dannenberg, S. Dapprich, A. D. Daniels, 
 O. Farkas, J. B. Foresman, J. V. Ortiz, J. Cioslowski, 
 and D. J. Fox, Gaussian, Inc., Wallingford CT, 2010.
 
 ******************************************
 Gaussian 09:  EM64L-G09RevC.01 23-Sep-2011
                12-Apr-2019 
 ******************************************
 %nprocshared=4
 Will use up to    4 processors via shared memory.
 ------------------------------------------------
 # mpw1pw91/6-31+g** nmr scrf=(pcm,solvent=water)
 ------------------------------------------------
 1/38=1/1;
 2/12=2,17=6,18=5,40=1/2;
 3/5=1,6=6,7=111,11=2,16=1,25=1,30=1,70=2201,72=1,74=-7/1,2,8,3;
 4//1;
 5/5=2,38=5,53=1/2;
 8/6=1,10=90,11=11/1;
 10/13=100,45=16/2;
 6/7=2,8=2,9=2,10=2,28=1/1;
 99/9=1/99;
 -------
 comment
 -------
 Charge =  0 Multiplicity = 1
 Symbolic Z-Matrix:
 6                     2.00692   0.48888   0.15324 
 6                     0.81979   1.06018  -0.63699 
 6                     0.60831  -1.14717  -0.65116 
 6                    -0.85135   0.10477   1.03242 
 6                    -0.65951  -1.20452   0.22014 
 6                    -0.45463   1.33427   0.18201 
 8                     0.52724  -0.0392   -1.52862 
 8                     1.76084  -0.93411   0.14968 
 8                    -1.51415   1.6849   -0.70194 
 8                    -0.07823   0.13986   2.22661 
 8                    -1.73976  -1.37779  -0.70054 
 1                     2.05793   0.84754   1.18228 
 1                     2.95395   0.68617  -0.36032 
 1                     1.07381   1.92762  -1.24867 
 1                     0.72502  -2.05707  -1.2458 
 1                    -1.92245   0.20058   1.26785 
 1                    -0.58437  -2.06109   0.90609 
 1                    -0.301     2.1883    0.8493 
 1                    -1.67366   0.89044  -1.2442 
 1                    -0.24831  -0.67816   2.72125 
 1                    -2.54558  -1.55198  -0.18733 
 
                          Input orientation:                          
 ---------------------------------------------------------------------
 Center     Atomic      Atomic             Coordinates (Angstroms)
 Number     Number       Type             X           Y           Z
 ---------------------------------------------------------------------
      1          6           0        2.006919    0.488881    0.153243
      2          6           0        0.819785    1.060180   -0.636993
      3          6           0        0.608308   -1.147172   -0.651156
      4          6           0       -0.851350    0.104769    1.032425
      5          6           0       -0.659511   -1.204524    0.220142
      6          6           0       -0.454629    1.334268    0.182013
      7          8           0        0.527243   -0.039202   -1.528616
      8          8           0        1.760838   -0.934112    0.149676
      9          8           0       -1.514149    1.684898   -0.701941
     10          8           0       -0.078229    0.139860    2.226609
     11          8           0       -1.739762   -1.377791   -0.700539
     12          1           0        2.057926    0.847541    1.182279
     13          1           0        2.953947    0.686173   -0.360315
     14          1           0        1.073807    1.927619   -1.248674
     15          1           0        0.725024   -2.057065   -1.245803
     16          1           0       -1.922454    0.200575    1.267851
     17          1           0       -0.584365   -2.061087    0.906090
     18          1           0       -0.300999    2.188303    0.849301
     19          1           0       -1.673664    0.890443   -1.244200
     20          1           0       -0.248313   -0.678161    2.721245
     21          1           0       -2.545575   -1.551979   -0.187331
 ---------------------------------------------------------------------
                    Distance matrix (angstroms):
                    1          2          3          4          5
     1  C    0.000000
     2  C    1.536276   0.000000
     3  C    2.297790   2.217504   0.000000
     4  C    3.014997   2.548030   2.555857   0.000000
     5  C    3.159422   2.837584   1.539420   1.552693   0.000000
     6  C    2.602830   1.539489   2.825164   1.546692   2.547331
     7  O    2.301513   1.445411   1.415664   2.912074   2.413403
     8  O    1.444118   2.341288   1.419525   2.946531   2.436427
     9  O    3.815720   2.416969   3.539495   2.438060   3.151095
    10  O    2.961166   3.139050   3.226347   1.423033   2.484183
    11  O    4.272122   3.535396   2.359885   2.447534   1.429901
    12  H    1.090942   2.210873   3.072744   3.006336   3.538523
    13  H    1.095230   2.184280   2.991281   4.093659   4.119314
    14  H    2.214957   1.091390   3.166711   3.497488   3.869384
    15  H    3.175284   3.177553   1.093221   3.514087   2.189237
    16  H    4.094563   3.447786   3.450183   1.100849   2.160329
    17  H    3.712663   3.754337   2.163960   2.185903   1.099942
    18  H    2.949410   2.176669   3.768767   2.162761   3.469243
    19  H    3.957372   2.571925   3.116243   2.544898   2.749853
    20  H    3.611467   3.929431   3.510963   1.956718   2.588756
    21  H    5.000630   4.283832   3.213406   2.665149   1.960611
                    6          7          8          9         10
     6  C    0.000000
     7  O    2.403486   0.000000
     8  O    3.170944   2.266999   0.000000
     9  O    1.423692   2.796997   4.279019   0.000000
    10  O    2.397636   3.807936   2.974766   3.609074   0.000000
    11  O    3.128215   2.759863   3.629589   3.070988   3.692174
    12  H    2.747793   3.237013   2.080581   4.124460   2.480846
    13  H    3.511771   2.789263   2.075795   4.591083   4.023024
    14  H    2.176016   2.060457   3.258358   2.656190   4.074415
    15  H    3.864114   2.047162   2.069129   4.394539   4.186805
    16  H    2.149143   3.725418   4.013037   2.500002   2.079440
    17  H    3.474126   3.354323   2.709652   4.181228   2.616125
    18  H    1.094647   3.361882   3.806589   2.032609   2.478452
    19  H    1.927981   2.406060   4.131307   0.975012   3.892981
    20  H    3.246558   4.367044   3.273403   4.347941   0.970954
    21  H    3.583140   3.678281   4.363545   3.435991   3.844115
                   11         12         13         14         15
    11  O    0.000000
    12  H    4.787436   0.000000
    13  H    5.138736   1.791226   0.000000
    14  H    4.375198   2.836299   2.421837   0.000000
    15  H    2.614172   4.013595   3.643836   3.999921   0.000000
    16  H    2.529659   4.033524   5.163915   4.277050   4.292381
    17  H    2.093584   3.939302   4.655198   4.827247   2.518960
    18  H    4.145970   2.733687   3.783416   2.521814   4.844103
    19  H    2.333414   4.451337   4.715693   2.936725   3.800199
    20  H    3.797698   3.164636   4.648859   4.929335   4.311175
    21  H    0.971112   5.368962   5.940033   5.131664   3.474520
                   16         17         18         19         20
    16  H    0.000000
    17  H    2.652634   0.000000
    18  H    2.599108   4.259206   0.000000
    19  H    2.616909   3.810754   2.819822   0.000000
    20  H    2.384802   2.306557   3.423969   4.496320   0.000000
    21  H    2.361627   2.302413   4.483574   2.800469   3.807990
                   21
    21  H    0.000000
 Stoichiometry    C6H10O5
 Framework group  C1[X(C6H10O5)]
 Deg. of freedom    57
 Full point group                 C1      NOp   1
 Largest Abelian subgroup         C1      NOp   1
 Largest concise Abelian subgroup C1      NOp   1
                         Standard orientation:                         
 ---------------------------------------------------------------------
 Center     Atomic      Atomic             Coordinates (Angstroms)
 Number     Number       Type             X           Y           Z
 ---------------------------------------------------------------------
      1          6           0        2.006919    0.488881    0.153243
      2          6           0        0.819785    1.060180   -0.636993
      3          6           0        0.608308   -1.147172   -0.651156
      4          6           0       -0.851350    0.104769    1.032425
      5          6           0       -0.659511   -1.204524    0.220142
      6          6           0       -0.454629    1.334268    0.182013
      7          8           0        0.527243   -0.039202   -1.528616
      8          8           0        1.760838   -0.934112    0.149676
      9          8           0       -1.514149    1.684898   -0.701941
     10          8           0       -0.078229    0.139860    2.226609
     11          8           0       -1.739762   -1.377791   -0.700539
     12          1           0        2.057926    0.847541    1.182279
     13          1           0        2.953947    0.686173   -0.360315
     14          1           0        1.073807    1.927619   -1.248674
     15          1           0        0.725024   -2.057065   -1.245803
     16          1           0       -1.922454    0.200575    1.267851
     17          1           0       -0.584365   -2.061087    0.906090
     18          1           0       -0.300999    2.188303    0.849301
     19          1           0       -1.673664    0.890443   -1.244200
     20          1           0       -0.248313   -0.678161    2.721245
     21          1           0       -2.545575   -1.551979   -0.187331
 ---------------------------------------------------------------------
 Rotational constants (GHZ):      1.4198286      1.2064518      1.1798778
 Standard basis: 6-31+G(d,p) (6D, 7F)
 There are   259 symmetry adapted basis functions of A   symmetry.
 Integral buffers will be    131072 words long.
 Raffenetti 2 integral format.
 Two-electron integral symmetry is turned on.
   259 basis functions,   422 primitive gaussians,   259 cartesian basis functions
    43 alpha electrons       43 beta electrons
       nuclear repulsion energy       737.2224766198 Hartrees.
 NAtoms=   21 NActive=   21 NUniq=   21 SFac= 1.00D+00 NAtFMM=   60 NAOKFM=F Big=F
 ------------------------------------------------------------------------------
 Polarizable Continuum Model (PCM)
 =================================
 Model                : PCM.
 Atomic radii         : UFF (Universal Force Field).
 Polarization charges : Total charges.
 Charge compensation  : None.
 Solution method      : Matrix inversion.
 Cavity type          : Scaled VdW (van der Waals Surface) (Alpha=1.100).
 Cavity algorithm     : GePol (No added spheres)
                        Default sphere list used, NSphG=   21.
                        Lebedev-Laikov grids with approx.  5.0 points / Ang**2.
                        Smoothing algorithm: Karplus/York (Gamma=1.0000).
                        Polarization charges: spherical gaussians, with
                                              point-specific exponents (IZeta= 3).
                        Self-potential: point-specific (ISelfS= 7).
                        Self-field    : sphere-specific E.n sum rule (ISelfD= 2).
 Solvent              : Water, Eps=  78.355300 Eps(inf)=   1.777849
 ------------------------------------------------------------------------------
 One-electron integrals computed using PRISM.
 NBasis=   259 RedAO= T  NBF=   259
 NBsUse=   259 1.00D-06 NBFU=   259
 Harris functional with IExCor=  908 diagonalized for initial guess.
 ExpMin= 4.38D-02 ExpMax= 5.48D+03 ExpMxC= 8.25D+02 IAcc=2 IRadAn=         4 AccDes= 0.00D+00
 HarFok:  IExCor=  908 AccDes= 0.00D+00 IRadAn=         4 IDoV= 1
 ScaDFX=  1.000000  1.000000  1.000000  1.000000
 FoFCou: FMM=F IPFlag=           0 FMFlag=      100000 FMFlg1=           0
         NFxFlg=           0 DoJE=T BraDBF=F KetDBF=T FulRan=T
         Omega=  0.000000  0.000000  1.000000  0.000000  0.000000 ICntrl=     500 IOpCl=  0
         NMat0=    1 NMatS0=    1 NMatT0=    0 NMatD0=    1 NMtDS0=    0 NMtDT0=    0
         I1Cent=           4 NGrid=           0.
 Petite list used in FoFCou.
 Initial guess orbital symmetries:
       Occupied  (A) (A) (A) (A) (A) (A) (A) (A) (A) (A) (A) (A)
                 (A) (A) (A) (A) (A) (A) (A) (A) (A) (A) (A) (A)
                 (A) (A) (A) (A) (A) (A) (A) (A) (A) (A) (A) (A)
                 (A) (A) (A) (A) (A) (A) (A)
       Virtual   (A) (A) (A) (A) (A) (A) (A) (A) (A) (A) (A) (A)
                 (A) (A) (A) (A) (A) (A) (A) (A) (A) (A) (A) (A)
                 (A) (A) (A) (A) (A) (A) (A) (A) (A) (A) (A) (A)
                 (A) (A) (A) (A) (A) (A) (A) (A) (A) (A) (A) (A)
                 (A) (A) (A) (A) (A) (A) (A) (A) (A) (A) (A) (A)
                 (A) (A) (A) (A) (A) (A) (A) (A) (A) (A) (A) (A)
                 (A) (A) (A) (A) (A) (A) (A) (A) (A) (A) (A) (A)
                 (A) (A) (A) (A) (A) (A) (A) (A) (A) (A) (A) (A)
                 (A) (A) (A) (A) (A) (A) (A) (A) (A) (A) (A) (A)
                 (A) (A) (A) (A) (A) (A) (A) (A) (A) (A) (A) (A)
                 (A) (A) (A) (A) (A) (A) (A) (A) (A) (A) (A) (A)
                 (A) (A) (A) (A) (A) (A) (A) (A) (A) (A) (A) (A)
                 (A) (A) (A) (A) (A) (A) (A) (A) (A) (A) (A) (A)
                 (A) (A) (A) (A) (A) (A) (A) (A) (A) (A) (A) (A)
                 (A) (A) (A) (A) (A) (A) (A) (A) (A) (A) (A) (A)
                 (A) (A) (A) (A) (A) (A) (A) (A) (A) (A) (A) (A)
                 (A) (A) (A) (A) (A) (A) (A) (A) (A) (A) (A) (A)
                 (A) (A) (A) (A) (A) (A) (A) (A) (A) (A) (A) (A)
 The electronic state of the initial guess is 1-A.
 Requested convergence on RMS density matrix=1.00D-08 within 128 cycles.
 Requested convergence on MAX density matrix=1.00D-06.
 Requested convergence on             energy=1.00D-06.
 No special actions if energy rises.
 Error on total polarization charges =  0.01152
 SCF Done:  E(RmPW1PW91) =  -610.646501417     A.U. after   12 cycles
             Convg  =    0.6599D-08             -V/T =  2.0090
 Range of M.O.s used for correlation:     1   259
 NBasis=   259 NAE=    43 NBE=    43 NFC=     0 NFV=     0
 NROrb=    259 NOA=    43 NOB=    43 NVA=   216 NVB=   216

 **** Warning!!: The largest alpha MO coefficient is  0.68556446D+02

 NEqPCM:  Using equilibrium solvation (IEInf=0, Eps=  78.3553, EpsInf=   1.7778)
          Differentiating once with respect to magnetic field using GIAOs.
          Electric field/nuclear overlap derivatives assumed to be zero.
 FoFCou: FMM=F IPFlag=           0 FMFlag=    10101102 FMFlg1=           0
         NFxFlg=    40000000 DoJE=F BraDBF=F KetDBF=T FulRan=T
         Omega=  0.000000  0.000000  1.000000  0.000000  0.000000 ICntrl=    6100 IOpCl=  0
         NMat0=    1 NMatS0=    1 NMatT0=    0 NMatD0=    1 NMtDS0=    0 NMtDT0=    0
         I1Cent=           7 NGrid=        1514.
 Symmetry not used in FoFCou.
          There are     3 degrees of freedom in the 1st order CPHF.  IDoFFX=0.
      3 vectors produced by pass  0 Test12= 3.10D-13 3.33D-08 XBig12= 1.78D+01 5.86D-01.
 AX will form     3 AO Fock derivatives at one time.
      3 vectors produced by pass  1 Test12= 3.10D-13 3.33D-08 XBig12= 4.14D-02 2.22D-02.
      3 vectors produced by pass  2 Test12= 3.10D-13 3.33D-08 XBig12= 8.92D-05 1.67D-03.
      3 vectors produced by pass  3 Test12= 3.10D-13 3.33D-08 XBig12= 4.68D-07 1.41D-04.
      3 vectors produced by pass  4 Test12= 3.10D-13 3.33D-08 XBig12= 1.44D-09 6.07D-06.
      3 vectors produced by pass  5 Test12= 3.10D-13 3.33D-08 XBig12= 5.20D-12 3.38D-07.
 Inverted reduced A of dimension    18 with in-core refinement.
 Calculating GIAO nuclear magnetic shielding tensors.
 SCF GIAO Magnetic shielding tensor (ppm):
      1  C    Isotropic =   130.0610   Anisotropy =    63.7812
   XX=   113.2039   YX=    10.6840   ZX=     8.4763
   XY=     5.8353   YY=   171.3383   ZY=    -6.2693
   XZ=     3.6065   YZ=    -0.4211   ZZ=   105.6408
   Eigenvalues:   101.5856   116.0156   172.5818
      2  C    Isotropic =   116.6441   Anisotropy =    44.8147
   XX=   109.5317   YX=    -0.2420   ZX=    16.8309
   XY=    -1.5159   YY=   127.1962   ZY=    17.8022
   XZ=     4.1777   YZ=    31.0927   ZZ=   113.2044
   Eigenvalues:    90.4711   112.9406   146.5206
      3  C    Isotropic =    93.2283   Anisotropy =    34.7161
   XX=   102.5462   YX=    12.1506   ZX=    24.1090
   XY=     6.3607   YY=    86.2563   ZY=    -6.9997
   XZ=    13.3770   YZ=   -20.8889   ZZ=    90.8824
   Eigenvalues:    64.3316    98.9809   116.3723
      4  C    Isotropic =   119.8477   Anisotropy =    49.1276
   XX=   133.8129   YX=    -3.4225   ZX=    27.3597
   XY=    -2.5094   YY=    99.6431   ZY=    -2.3540
   XZ=    16.9712   YZ=     0.6567   ZZ=   126.0870
   Eigenvalues:    99.2993   107.6443   152.5994
      5  C    Isotropic =   122.5024   Anisotropy =    43.7098
   XX=   127.2250   YX=    -0.2149   ZX=    24.0124
   XY=    -2.9991   YY=   114.7271   ZY=    -0.6848
   XZ=    26.4332   YZ=     1.8272   ZZ=   125.5550
   Eigenvalues:   100.9834   114.8815   151.6422
      6  C    Isotropic =   124.6157   Anisotropy =    51.7508
   XX=   132.6956   YX=    -5.3846   ZX=    24.0624
   XY=    -1.9912   YY=   107.0466   ZY=    -3.7039
   XZ=    25.7932   YZ=    -6.8789   ZZ=   134.1048
   Eigenvalues:   105.8565   108.8743   159.1162
      7  O    Isotropic =   256.4000   Anisotropy =    57.9432
   XX=   250.7418   YX=    33.4746   ZX=    35.0357
   XY=    15.3723   YY=   277.5765   ZY=   -27.9308
   XZ=    62.7687   YZ=   -24.4668   ZZ=   240.8817
   Eigenvalues:   183.0874   291.0838   295.0288
      8  O    Isotropic =   265.7974   Anisotropy =   108.1157
   XX=   271.2689   YX=     1.9891   ZX=    71.4061
   XY=    13.2680   YY=   284.3112   ZY=   -27.8854
   XZ=    63.5648   YZ=   -63.9602   ZZ=   241.8122
   Eigenvalues:   172.3215   287.1962   337.8746
      9  O    Isotropic =   285.5180   Anisotropy =    37.3793
   XX=   276.6887   YX=    -2.6335   ZX=    -5.1360
   XY=   -12.8428   YY=   286.3627   ZY=   -18.3905
   XZ=    14.8083   YZ=   -17.4552   ZZ=   293.5024
   Eigenvalues:   269.9008   276.2156   310.4375
     10  O    Isotropic =   287.4378   Anisotropy =    72.6546
   XX=   247.8401   YX=     7.8975   ZX=     5.1380
   XY=     3.3013   YY=   313.6798   ZY=   -38.5190
   XZ=     7.6739   YZ=   -17.2840   ZZ=   300.7934
   Eigenvalues:   245.6465   280.7927   335.8742
     11  O    Isotropic =   288.1290   Anisotropy =    51.9601
   XX=   314.7683   YX=    11.2884   ZX=    -8.2871
   XY=    16.4837   YY=   267.8068   ZY=     9.0609
   XZ=   -23.3520   YZ=    11.2882   ZZ=   281.8118
   Eigenvalues:   255.7117   285.9063   322.7690
     12  H    Isotropic =    27.1156   Anisotropy =     5.8935
   XX=    27.5468   YX=     1.9329   ZX=     0.3439
   XY=     2.2101   YY=    25.8757   ZY=     3.4449
   XZ=     1.9518   YZ=     1.7730   ZZ=    27.9242
   Eigenvalues:    23.7276    26.5745    31.0446
     13  H    Isotropic =    27.6951   Anisotropy =    11.1536
   XX=    32.5727   YX=     3.1806   ZX=    -1.7865
   XY=     4.2182   YY=    27.4642   ZY=    -1.7270
   XZ=    -2.8021   YZ=    -1.2756   ZZ=    23.0485
   Eigenvalues:    22.4108    25.5438    35.1308
     14  H    Isotropic =    27.0196   Anisotropy =     8.3123
   XX=    25.4772   YX=     2.8396   ZX=    -1.9336
   XY=     1.9149   YY=    30.7416   ZY=    -2.9371
   XZ=    -0.8960   YZ=    -1.6270   ZZ=    24.8401
   Eigenvalues:    23.6822    24.8155    32.5611
     15  H    Isotropic =    26.0068   Anisotropy =     7.6042
   XX=    24.1840   YX=    -0.3576   ZX=     0.0998
   XY=    -1.0407   YY=    29.6215   ZY=     3.1223
   XZ=    -0.0945   YZ=     3.0409   ZZ=    24.2149
   Eigenvalues:    22.7575    24.1867    31.0763
     16  H    Isotropic =    27.7150   Anisotropy =     4.5303
   XX=    30.6098   YX=    -0.6375   ZX=    -0.7765
   XY=    -0.3428   YY=    23.6819   ZY=     0.3708
   XZ=    -0.0125   YZ=     0.1712   ZZ=    28.8532
   Eigenvalues:    23.6361    28.7737    30.7352
     17  H    Isotropic =    28.0601   Anisotropy =     5.1434
   XX=    26.8850   YX=     0.8199   ZX=     2.1638
   XY=     1.5521   YY=    29.5265   ZY=    -2.6300
   XZ=     1.6925   YZ=    -2.7573   ZZ=    27.7688
   Eigenvalues:    24.0283    28.6629    31.4890
     18  H    Isotropic =    28.0043   Anisotropy =     5.9038
   XX=    25.8856   YX=    -0.2154   ZX=     2.3621
   XY=    -1.5442   YY=    29.7678   ZY=     2.4040
   XZ=     1.1226   YZ=     3.1206   ZZ=    28.3595
   Eigenvalues:    24.1169    27.9558    31.9402
     19  H    Isotropic =    28.2971   Anisotropy =    14.3785
   XX=    25.3121   YX=    -0.0103   ZX=     6.4755
   XY=     1.5835   YY=    33.2818   ZY=     6.1542
   XZ=     4.4078   YZ=     6.1281   ZZ=    26.2974
   Eigenvalues:    19.2725    27.7360    37.8828
     20  H    Isotropic =    30.2682   Anisotropy =    18.1508
   XX=    23.1048   YX=     1.9179   ZX=     0.4702
   XY=     3.1477   YY=    33.4601   ZY=    -8.0052
   XZ=     0.0630   YZ=    -8.7599   ZZ=    34.2398
   Eigenvalues:    21.8572    26.5787    42.3688
     21  H    Isotropic =    29.7959   Anisotropy =    19.1213
   XX=    39.1188   YX=     5.6077   ZX=    -5.3528
   XY=     5.7382   YY=    23.1899   ZY=    -0.7935
   XZ=    -4.4580   YZ=    -1.2864   ZZ=    27.0789
   Eigenvalues:    21.3196    25.5245    42.5434
 End of Minotr Frequency-dependent properties file   721 does not exist.
 End of Minotr Frequency-dependent properties file   722 does not exist.

 **********************************************************************

            Population analysis using the SCF density.

 **********************************************************************

 Orbital symmetries:
       Occupied  (A) (A) (A) (A) (A) (A) (A) (A) (A) (A) (A) (A)
                 (A) (A) (A) (A) (A) (A) (A) (A) (A) (A) (A) (A)
                 (A) (A) (A) (A) (A) (A) (A) (A) (A) (A) (A) (A)
                 (A) (A) (A) (A) (A) (A) (A)
       Virtual   (A) (A) (A) (A) (A) (A) (A) (A) (A) (A) (A) (A)
                 (A) (A) (A) (A) (A) (A) (A) (A) (A) (A) (A) (A)
                 (A) (A) (A) (A) (A) (A) (A) (A) (A) (A) (A) (A)
                 (A) (A) (A) (A) (A) (A) (A) (A) (A) (A) (A) (A)
                 (A) (A) (A) (A) (A) (A) (A) (A) (A) (A) (A) (A)
                 (A) (A) (A) (A) (A) (A) (A) (A) (A) (A) (A) (A)
                 (A) (A) (A) (A) (A) (A) (A) (A) (A) (A) (A) (A)
                 (A) (A) (A) (A) (A) (A) (A) (A) (A) (A) (A) (A)
                 (A) (A) (A) (A) (A) (A) (A) (A) (A) (A) (A) (A)
                 (A) (A) (A) (A) (A) (A) (A) (A) (A) (A) (A) (A)
                 (A) (A) (A) (A) (A) (A) (A) (A) (A) (A) (A) (A)
                 (A) (A) (A) (A) (A) (A) (A) (A) (A) (A) (A) (A)
                 (A) (A) (A) (A) (A) (A) (A) (A) (A) (A) (A) (A)
                 (A) (A) (A) (A) (A) (A) (A) (A) (A) (A) (A) (A)
                 (A) (A) (A) (A) (A) (A) (A) (A) (A) (A) (A) (A)
                 (A) (A) (A) (A) (A) (A) (A) (A) (A) (A) (A) (A)
                 (A) (A) (A) (A) (A) (A) (A) (A) (A) (A) (A) (A)
                 (A) (A) (A) (A) (A) (A) (A) (A) (A) (A) (A) (A)
 The electronic state is 1-A.
 Alpha  occ. eigenvalues --  -19.27613 -19.27185 -19.26741 -19.26469 -19.25838
 Alpha  occ. eigenvalues --  -10.35894 -10.31664 -10.31558 -10.31502 -10.31299
 Alpha  occ. eigenvalues --  -10.30353  -1.14332  -1.08046  -1.06850  -1.06431
 Alpha  occ. eigenvalues --   -1.03678  -0.82006  -0.80498  -0.70668  -0.68539
 Alpha  occ. eigenvalues --   -0.65061  -0.60532  -0.57654  -0.55765  -0.54327
 Alpha  occ. eigenvalues --   -0.52778  -0.49419  -0.48190  -0.47009  -0.46218
 Alpha  occ. eigenvalues --   -0.44916  -0.43357  -0.42797  -0.41369  -0.38936
 Alpha  occ. eigenvalues --   -0.37395  -0.36733  -0.36190  -0.33016  -0.32044
 Alpha  occ. eigenvalues --   -0.30010  -0.28852  -0.27821
 Alpha virt. eigenvalues --    0.00620   0.01454   0.02081   0.02818   0.03675
 Alpha virt. eigenvalues --    0.04291   0.05213   0.05438   0.05986   0.08009
 Alpha virt. eigenvalues --    0.08744   0.09535   0.09784   0.10219   0.11669
 Alpha virt. eigenvalues --    0.12460   0.12631   0.13367   0.13767   0.14027
 Alpha virt. eigenvalues --    0.15099   0.16138   0.16461   0.17000   0.17201
 Alpha virt. eigenvalues --    0.18191   0.19350   0.19438   0.20286   0.20870
 Alpha virt. eigenvalues --    0.21311   0.23046   0.23188   0.23636   0.24175
 Alpha virt. eigenvalues --    0.24614   0.25233   0.25937   0.26693   0.27410
 Alpha virt. eigenvalues --    0.28199   0.28705   0.28959   0.30329   0.31127
 Alpha virt. eigenvalues --    0.31470   0.31992   0.32447   0.33632   0.33937
 Alpha virt. eigenvalues --    0.34614   0.35196   0.35961   0.36657   0.37213
 Alpha virt. eigenvalues --    0.37542   0.38766   0.39216   0.40124   0.41084
 Alpha virt. eigenvalues --    0.42448   0.42975   0.44032   0.45580   0.49214
 Alpha virt. eigenvalues --    0.52150   0.65331   0.66448   0.66747   0.68948
 Alpha virt. eigenvalues --    0.70189   0.71516   0.73500   0.75901   0.77519
 Alpha virt. eigenvalues --    0.80129   0.81058   0.82200   0.85424   0.86457
 Alpha virt. eigenvalues --    0.88483   0.93384   0.96205   0.98959   1.00600
 Alpha virt. eigenvalues --    1.02520   1.03760   1.05406   1.05766   1.08058
 Alpha virt. eigenvalues --    1.09122   1.09871   1.10179   1.11874   1.13093
 Alpha virt. eigenvalues --    1.17314   1.20868   1.24638   1.25257   1.26758
 Alpha virt. eigenvalues --    1.28732   1.29614   1.30364   1.32334   1.34480
 Alpha virt. eigenvalues --    1.35335   1.38418   1.39817   1.41096   1.42364
 Alpha virt. eigenvalues --    1.43821   1.45989   1.46962   1.49205   1.49978
 Alpha virt. eigenvalues --    1.54188   1.55205   1.58338   1.59041   1.60930
 Alpha virt. eigenvalues --    1.61803   1.63682   1.67571   1.68163   1.70442
 Alpha virt. eigenvalues --    1.70543   1.74663   1.76154   1.76936   1.79719
 Alpha virt. eigenvalues --    1.80985   1.84151   1.84999   1.87592   1.89184
 Alpha virt. eigenvalues --    1.91100   1.94202   1.94878   1.97608   2.00248
 Alpha virt. eigenvalues --    2.02458   2.02712   2.05020   2.07024   2.09294
 Alpha virt. eigenvalues --    2.09626   2.11790   2.14770   2.16625   2.17594
 Alpha virt. eigenvalues --    2.20459   2.21450   2.24007   2.27893   2.30556
 Alpha virt. eigenvalues --    2.31637   2.37224   2.38564   2.41778   2.43215
 Alpha virt. eigenvalues --    2.44169   2.46072   2.49255   2.51835   2.52866
 Alpha virt. eigenvalues --    2.53997   2.55879   2.61556   2.61764   2.65240
 Alpha virt. eigenvalues --    2.66203   2.67541   2.68883   2.70139   2.71501
 Alpha virt. eigenvalues --    2.73360   2.74253   2.75783   2.78774   2.80787
 Alpha virt. eigenvalues --    2.82259   2.84228   2.87892   2.88896   2.91239
 Alpha virt. eigenvalues --    2.92177   2.95898   2.99000   3.00455   3.03580
 Alpha virt. eigenvalues --    3.06749   3.09193   3.12733   3.18613   3.23424
 Alpha virt. eigenvalues --    3.36758   3.41000   3.45060   3.47764   3.48386
 Alpha virt. eigenvalues --    3.50104   3.53832   3.56418   3.59380   3.62500
 Alpha virt. eigenvalues --    4.31494   4.34535   4.46395   4.47860   4.52404
 Alpha virt. eigenvalues --    4.58293   4.64279   4.84116   4.90410   4.98496
 Alpha virt. eigenvalues --    5.05376
          Condensed to atoms (all electrons):
              1          2          3          4          5          6
     1  C    5.776703  -0.450553  -0.606001  -0.403588   0.437834   0.259538
     2  C   -0.450553   7.018889  -0.174715   0.404351  -0.211417  -0.804896
     3  C   -0.606001  -0.174715   6.861257   0.535403  -1.214202   0.019212
     4  C   -0.403588   0.404351   0.535403   6.827348  -0.893551  -0.474306
     5  C    0.437834  -0.211417  -1.214202  -0.893551   7.265933   0.012799
     6  C    0.259538  -0.804896   0.019212  -0.474306   0.012799   6.532745
     7  O    0.028328   0.105985   0.239548  -0.137931  -0.027340  -0.083901
     8  O    0.181563  -0.107160   0.362030   0.013312  -0.191848  -0.020604
     9  O    0.021783  -0.156817  -0.017726  -0.108546   0.022652   0.351207
    10  O    0.034516  -0.042178  -0.072529   0.101572   0.093798  -0.062166
    11  O    0.017302  -0.064246  -0.125071  -0.094307   0.190996   0.082489
    12  H    0.481529  -0.172414   0.005362  -0.031591   0.015098   0.071195
    13  H    0.375788   0.010288  -0.011494  -0.001556   0.004164   0.001857
    14  H    0.022828   0.300411  -0.001279   0.005089  -0.003543   0.013826
    15  H    0.009048   0.041481   0.325567   0.017347  -0.004343  -0.026250
    16  H    0.000755  -0.004319  -0.001251   0.276845   0.043035   0.012346
    17  H    0.016978  -0.036580   0.025578   0.024269   0.256238   0.022726
    18  H    0.026499  -0.012927  -0.037169  -0.066067   0.066056   0.338231
    19  H    0.004519  -0.027453  -0.016982  -0.057882   0.052909   0.024291
    20  H   -0.001693  -0.005194   0.010652   0.065414  -0.065010   0.009031
    21  H   -0.001890   0.006117   0.017265  -0.021985   0.021574  -0.006400
              7          8          9         10         11         12
     1  C    0.028328   0.181563   0.021783   0.034516   0.017302   0.481529
     2  C    0.105985  -0.107160  -0.156817  -0.042178  -0.064246  -0.172414
     3  C    0.239548   0.362030  -0.017726  -0.072529  -0.125071   0.005362
     4  C   -0.137931   0.013312  -0.108546   0.101572  -0.094307  -0.031591
     5  C   -0.027340  -0.191848   0.022652   0.093798   0.190996   0.015098
     6  C   -0.083901  -0.020604   0.351207  -0.062166   0.082489   0.071195
     7  O    8.311005  -0.043757   0.010620   0.009488   0.006180   0.011364
     8  O   -0.043757   8.279275  -0.001637   0.007345   0.010552  -0.044345
     9  O    0.010620  -0.001637   8.176138   0.009735  -0.002391  -0.000120
    10  O    0.009488   0.007345   0.009735   8.275136   0.007450  -0.007877
    11  O    0.006180   0.010552  -0.002391   0.007450   8.331273  -0.000128
    12  H    0.011364  -0.044345  -0.000120  -0.007877  -0.000128   0.517163
    13  H   -0.003949  -0.051110  -0.000312   0.001383   0.000133  -0.037991
    14  H   -0.035197   0.007423   0.003176  -0.000147   0.000522   0.002123
    15  H   -0.043786  -0.041206   0.000322  -0.000105   0.006732  -0.000240
    16  H   -0.001714   0.000880  -0.004068  -0.038699  -0.010759  -0.000074
    17  H    0.008608  -0.002265  -0.000178  -0.013017  -0.028584   0.000016
    18  H    0.011447  -0.000714  -0.044981   0.003265  -0.000830   0.000126
    19  H    0.018945  -0.000922   0.256332   0.000190   0.005798  -0.000004
    20  H    0.000145  -0.004228  -0.000428   0.235110  -0.000076   0.000324
    21  H   -0.000577  -0.000421  -0.001362  -0.000311   0.235411   0.000000
             13         14         15         16         17         18
     1  C    0.375788   0.022828   0.009048   0.000755   0.016978   0.026499
     2  C    0.010288   0.300411   0.041481  -0.004319  -0.036580  -0.012927
     3  C   -0.011494  -0.001279   0.325567  -0.001251   0.025578  -0.037169
     4  C   -0.001556   0.005089   0.017347   0.276845   0.024269  -0.066067
     5  C    0.004164  -0.003543  -0.004343   0.043035   0.256238   0.066056
     6  C    0.001857   0.013826  -0.026250   0.012346   0.022726   0.338231
     7  O   -0.003949  -0.035197  -0.043786  -0.001714   0.008608   0.011447
     8  O   -0.051110   0.007423  -0.041206   0.000880  -0.002265  -0.000714
     9  O   -0.000312   0.003176   0.000322  -0.004068  -0.000178  -0.044981
    10  O    0.001383  -0.000147  -0.000105  -0.038699  -0.013017   0.003265
    11  O    0.000133   0.000522   0.006732  -0.010759  -0.028584  -0.000830
    12  H   -0.037991   0.002123  -0.000240  -0.000074   0.000016   0.000126
    13  H    0.542304  -0.003536   0.000322   0.000004  -0.000010  -0.000014
    14  H   -0.003536   0.500636   0.000030  -0.000125   0.000024  -0.001905
    15  H    0.000322   0.000030   0.535145  -0.000146  -0.003140   0.000024
    16  H    0.000004  -0.000125  -0.000146   0.559955  -0.003953  -0.003776
    17  H   -0.000010   0.000024  -0.003140  -0.003953   0.555501  -0.000130
    18  H   -0.000014  -0.001905   0.000024  -0.003776  -0.000130   0.532691
    19  H   -0.000002  -0.000672   0.000044  -0.001178  -0.000049   0.006021
    20  H   -0.000020   0.000011  -0.000018  -0.004503   0.006150  -0.000016
    21  H    0.000000  -0.000001  -0.000249   0.004336  -0.006923  -0.000012
             19         20         21
     1  C    0.004519  -0.001693  -0.001890
     2  C   -0.027453  -0.005194   0.006117
     3  C   -0.016982   0.010652   0.017265
     4  C   -0.057882   0.065414  -0.021985
     5  C    0.052909  -0.065010   0.021574
     6  C    0.024291   0.009031  -0.006400
     7  O    0.018945   0.000145  -0.000577
     8  O   -0.000922  -0.004228  -0.000421
     9  O    0.256332  -0.000428  -0.001362
    10  O    0.000190   0.235110  -0.000311
    11  O    0.005798  -0.000076   0.235411
    12  H   -0.000004   0.000324   0.000000
    13  H   -0.000002  -0.000020   0.000000
    14  H   -0.000672   0.000011  -0.000001
    15  H    0.000044  -0.000018  -0.000249
    16  H   -0.001178  -0.004503   0.004336
    17  H   -0.000049   0.006150  -0.006923
    18  H    0.006021  -0.000016  -0.000012
    19  H    0.344907  -0.000006  -0.001133
    20  H   -0.000006   0.367724   0.000033
    21  H   -0.001133   0.000033   0.356917
 Mulliken atomic charges:
              1
     1  C   -0.231787
     2  C    0.383346
     3  C   -0.123456
     4  C    0.020362
     5  C    0.128169
     6  C   -0.272971
     7  O   -0.383512
     8  O   -0.352164
     9  O   -0.513400
    10  O   -0.541960
    11  O   -0.568445
    12  H    0.190483
    13  H    0.173751
    14  H    0.190303
    15  H    0.183421
    16  H    0.176410
    17  H    0.178739
    18  H    0.184180
    19  H    0.392323
    20  H    0.386596
    21  H    0.399609
 Sum of Mulliken atomic charges =   0.00000
 Mulliken charges with hydrogens summed into heavy atoms:
              1
     1  C    0.132447
     2  C    0.573649
     3  C    0.059966
     4  C    0.196772
     5  C    0.306908
     6  C   -0.088791
     7  O   -0.383512
     8  O   -0.352164
     9  O   -0.121076
    10  O   -0.155363
    11  O   -0.168836
 Sum of Mulliken charges with hydrogens summed into heavy atoms =   0.00000
 Electronic spatial extent (au):  <R**2>=           1335.9058
 Charge=              0.0000 electrons
 Dipole moment (field-independent basis, Debye):
    X=             -0.9822    Y=             -1.9354    Z=              2.9554  Tot=              3.6667
 Quadrupole moment (field-independent basis, Debye-Ang):
   XX=            -61.7707   YY=            -63.3809   ZZ=            -67.4524
   XY=             11.4648   XZ=             -5.5653   YZ=             -3.9608
 Traceless Quadrupole moment (field-independent basis, Debye-Ang):
   XX=              2.4307   YY=              0.8204   ZZ=             -3.2510
   XY=             11.4648   XZ=             -5.5653   YZ=             -3.9608
 Octapole moment (field-independent basis, Debye-Ang**2):
  XXX=            -18.9108  YYY=            -14.4291  ZZZ=             13.4935  XYY=              6.3073
  XXY=             -6.3852  XXZ=              3.9550  XZZ=             -5.1666  YZZ=            -12.0570
  YYZ=              8.0587  XYZ=              4.2586
 Hexadecapole moment (field-independent basis, Debye-Ang**3):
 XXXX=           -595.7897 YYYY=           -515.4032 ZZZZ=           -454.2511 XXXY=             69.9597
 XXXZ=             -6.2798 YYYX=             31.3266 YYYZ=              5.3035 ZZZX=              1.0981
 ZZZY=            -42.1793 XXYY=           -206.5825 XXZZ=           -184.6739 YYZZ=           -155.6597
 XXYZ=             -2.9875 YYXZ=            -22.8660 ZZXY=              1.2689
 N-N= 7.372224766198D+02 E-N=-2.904591550024D+03  KE= 6.052075099310D+02
 1\1\GINC-COMPUTE-8-20\SP\RmPW1PW91\6-31+G(d,p)\C6H10O5\MMARCARINO.IQUI
 R\12-Apr-2019\0\\# mpw1pw91/6-31+g** nmr scrf=(pcm,solvent=water)\\com
 ment\\0,1\C,0,2.006919,0.488881,0.153243\C,0,0.819785,1.06018,-0.63699
 3\C,0,0.608308,-1.147172,-0.651156\C,0,-0.85135,0.104769,1.032425\C,0,
 -0.659511,-1.204524,0.220142\C,0,-0.454629,1.334268,0.182013\O,0,0.527
 243,-0.039202,-1.528616\O,0,1.760838,-0.934112,0.149676\O,0,-1.514149,
 1.684898,-0.701941\O,0,-0.078229,0.13986,2.226609\O,0,-1.739762,-1.377
 791,-0.700539\H,0,2.057926,0.847541,1.182279\H,0,2.953947,0.686173,-0.
 360315\H,0,1.073807,1.927619,-1.248674\H,0,0.725024,-2.057065,-1.24580
 3\H,0,-1.922454,0.200575,1.267851\H,0,-0.584365,-2.061087,0.90609\H,0,
 -0.300999,2.188303,0.849301\H,0,-1.673664,0.890443,-1.2442\H,0,-0.2483
 13,-0.678161,2.721245\H,0,-2.545575,-1.551979,-0.187331\\Version=EM64L
 -G09RevC.01\State=1-A\HF=-610.6465014\RMSD=6.599e-09\Dipole=-0.3864285
 ,-0.7614284,1.1627324\Quadrupole=1.8071312,0.6099366,-2.4170678,8.5238
 281,-4.1376513,-2.944782\PG=C01 [X(C6H10O5)]\\@


 I CLAIM NOT TO HAVE CONTROLLED EVENTS,
 BUT CONFESS PLAINLY THAT EVENTS HAVE CONTROLLED ME.

                                         A. LINCOLN
 Job cpu time:  0 days  0 hours 22 minutes  0.7 seconds.
 File lengths (MBytes):  RWF=     82 Int=      0 D2E=      0 Chk=      5 Scr=      1
 Normal termination of Gaussian 09 at Fri Apr 12 10:18:30 2019.
