 Entering Gaussian System, Link 0=g09
 Input=/home/asarotti.iquir/SCF3/01_RSR_Levo08_OPTB_energy_b3lyp_smd.gjc
 Output=/home/asarotti.iquir/SCF3/01_RSR_Levo08_OPTB_energy_b3lyp_smd.log
 Initial command:
 /share/apps/Gaussian09/EM64T.SSE4.2-enabled/g09/l1.exe /tmp/Gau-14856.inp -scrdir=/tmp/
 Entering Link 1 = /share/apps/Gaussian09/EM64T.SSE4.2-enabled/g09/l1.exe PID=     14858.
  
 Copyright (c) 1988,1990,1992,1993,1995,1998,2003,2009,2011,
            Gaussian, Inc.  All Rights Reserved.
  
 This is part of the Gaussian(R) 09 program.  It is based on
 the Gaussian(R) 03 system (copyright 2003, Gaussian, Inc.),
 the Gaussian(R) 98 system (copyright 1998, Gaussian, Inc.),
 the Gaussian(R) 94 system (copyright 1995, Gaussian, Inc.),
 the Gaussian 92(TM) system (copyright 1992, Gaussian, Inc.),
 the Gaussian 90(TM) system (copyright 1990, Gaussian, Inc.),
 the Gaussian 88(TM) system (copyright 1988, Gaussian, Inc.),
 the Gaussian 86(TM) system (copyright 1986, Carnegie Mellon
 University), and the Gaussian 82(TM) system (copyright 1983,
 Carnegie Mellon University). Gaussian is a federally registered
 trademark of Gaussian, Inc.
  
 This software contains proprietary and confidential information,
 including trade secrets, belonging to Gaussian, Inc.
  
 This software is provided under written license and may be
 used, copied, transmitted, or stored only in accord with that
 written license.
  
 The following legend is applicable only to US Government
 contracts under FAR:
  
                    RESTRICTED RIGHTS LEGEND
  
 Use, reproduction and disclosure by the US Government is
 subject to restrictions as set forth in subparagraphs (a)
 and (c) of the Commercial Computer Software - Restricted
 Rights clause in FAR 52.227-19.
  
 Gaussian, Inc.
 340 Quinnipiac St., Bldg. 40, Wallingford CT 06492
  
  
 ---------------------------------------------------------------
 Warning -- This program may not be used in any manner that
 competes with the business of Gaussian, Inc. or will provide
 assistance to any competitor of Gaussian, Inc.  The licensee
 of this program is prohibited from giving any competitor of
 Gaussian, Inc. access to this program.  By using this program,
 the user acknowledges that Gaussian, Inc. is engaged in the
 business of creating and licensing software in the field of
 computational chemistry and represents and warrants to the
 licensee that it is not a competitor of Gaussian, Inc. and that
 it will not use this program in any manner prohibited above.
 ---------------------------------------------------------------
  

 Cite this work as:
 Gaussian 09, Revision C.01,
 M. J. Frisch, G. W. Trucks, H. B. Schlegel, G. E. Scuseria, 
 M. A. Robb, J. R. Cheeseman, G. Scalmani, V. Barone, B. Mennucci, 
 G. A. Petersson, H. Nakatsuji, M. Caricato, X. Li, H. P. Hratchian, 
 A. F. Izmaylov, J. Bloino, G. Zheng, J. L. Sonnenberg, M. Hada, 
 M. Ehara, K. Toyota, R. Fukuda, J. Hasegawa, M. Ishida, T. Nakajima, 
 Y. Honda, O. Kitao, H. Nakai, T. Vreven, J. A. Montgomery, Jr., 
 J. E. Peralta, F. Ogliaro, M. Bearpark, J. J. Heyd, E. Brothers, 
 K. N. Kudin, V. N. Staroverov, T. Keith, R. Kobayashi, J. Normand, 
 K. Raghavachari, A. Rendell, J. C. Burant, S. S. Iyengar, J. Tomasi, 
 M. Cossi, N. Rega, J. M. Millam, M. Klene, J. E. Knox, J. B. Cross, 
 V. Bakken, C. Adamo, J. Jaramillo, R. Gomperts, R. E. Stratmann, 
 O. Yazyev, A. J. Austin, R. Cammi, C. Pomelli, J. W. Ochterski, 
 R. L. Martin, K. Morokuma, V. G. Zakrzewski, G. A. Voth, 
 P. Salvador, J. J. Dannenberg, S. Dapprich, A. D. Daniels, 
 O. Farkas, J. B. Foresman, J. V. Ortiz, J. Cioslowski, 
 and D. J. Fox, Gaussian, Inc., Wallingford CT, 2010.
 
 ******************************************
 Gaussian 09:  EM64L-G09RevC.01 23-Sep-2011
                15-Apr-2019 
 ******************************************
 %nprocshared=4
 Will use up to    4 processors via shared memory.
 -----------------------------------------------------------
 # B3LYP/6-31+G** test scrf=(pcm,solvent=water,smd,dovacuum)
 -----------------------------------------------------------
 1/38=1/1;
 2/12=2,17=6,18=5,40=1/2;
 3/5=1,6=6,7=111,11=2,16=1,25=1,30=1,70=32101,72=1,74=-5/1,2,3;
 4//1;
 5/5=2,38=5,53=1/2;
 6/7=2,8=2,9=2,10=2,28=1/1;
 99/5=1,9=1/99;
 -------
 comment
 -------
 Charge =  0 Multiplicity = 1
 Symbolic Z-Matrix:
 6                     2.12307  -0.62049  -0.63744 
 6                     1.09667  -1.02846   0.41932 
 6                     0.95583   1.17372   0.22569 
 6                    -1.21988  -0.04993   0.04562 
 6                    -0.51778   1.27629  -0.2504 
 6                    -0.31136  -1.27036  -0.18741 
 8                     1.08393   0.17443   1.22252 
 8                     1.79122   0.76099  -0.86116 
 8                    -0.95386  -2.44924   0.30019 
 8                    -2.40422  -0.15283  -0.73211 
 8                    -1.22729   2.28835   0.4598 
 1                     2.03698  -1.16764  -1.57974 
 1                     3.14643  -0.7082   -0.25373 
 1                     1.40706  -1.86125   1.05259 
 1                     1.31016   2.12426   0.63581 
 1                    -1.46725  -0.02803   1.119 
 1                    -0.52556   1.47177  -1.33033 
 1                    -0.22819  -1.43919  -1.26575 
 1                    -1.06702  -2.35339   1.26175 
 1                    -2.75188  -1.04571  -0.56225 
 1                    -0.93827   3.14916   0.11655 
 
                          Input orientation:                          
 ---------------------------------------------------------------------
 Center     Atomic      Atomic             Coordinates (Angstroms)
 Number     Number       Type             X           Y           Z
 ---------------------------------------------------------------------
      1          6           0        2.123074   -0.620488   -0.637436
      2          6           0        1.096669   -1.028461    0.419315
      3          6           0        0.955825    1.173718    0.225688
      4          6           0       -1.219881   -0.049930    0.045619
      5          6           0       -0.517777    1.276292   -0.250404
      6          6           0       -0.311363   -1.270358   -0.187413
      7          8           0        1.083929    0.174433    1.222519
      8          8           0        1.791218    0.760986   -0.861162
      9          8           0       -0.953855   -2.449236    0.300190
     10          8           0       -2.404223   -0.152834   -0.732109
     11          8           0       -1.227289    2.288350    0.459798
     12          1           0        2.036984   -1.167642   -1.579744
     13          1           0        3.146431   -0.708195   -0.253726
     14          1           0        1.407064   -1.861254    1.052585
     15          1           0        1.310164    2.124260    0.635808
     16          1           0       -1.467246   -0.028028    1.119003
     17          1           0       -0.525562    1.471773   -1.330333
     18          1           0       -0.228193   -1.439191   -1.265755
     19          1           0       -1.067023   -2.353395    1.261745
     20          1           0       -2.751878   -1.045709   -0.562245
     21          1           0       -0.938266    3.149159    0.116553
 ---------------------------------------------------------------------
                    Distance matrix (angstroms):
                    1          2          3          4          5
     1  C    0.000000
     2  C    1.528618   0.000000
     3  C    2.307949   2.215157   0.000000
     4  C    3.459400   2.542356   2.502686   0.000000
     5  C    3.274395   2.892550   1.551995   1.529524   0.000000
     6  C    2.559558   1.552156   2.783869   1.539205   2.555778
     7  O    2.274017   1.446462   1.417270   2.596723   2.439069
     8  O    1.438281   2.307410   1.431598   3.247546   2.443363
     9  O    3.700129   2.497487   4.096123   2.427395   3.791158
    10  O    4.552371   3.787974   3.737250   1.420604   2.415185
    11  O    4.570579   4.050143   2.462356   2.374690   1.425502
    12  H    1.093039   2.213549   3.148088   3.807657   3.777137
    13  H    1.096442   2.181073   2.927489   4.425788   4.167088
    14  H    2.215478   1.091293   3.177803   3.346000   3.904739
    15  H    3.132988   3.167349   1.094205   3.387706   2.201315
    16  H    4.040604   2.839734   2.848417   1.101736   2.116133
    17  H    3.445713   3.456020   2.168996   2.165849   1.097506
    18  H    2.567784   2.182526   3.233202   2.152485   2.913528
    19  H    4.097142   2.673332   4.195933   2.609268   3.970251
    20  H    4.894040   3.971784   4.392466   1.925640   3.237305
    21  H    4.914320   4.656730   2.738952   3.212244   1.954252
                    6          7          8          9         10
     6  C    0.000000
     7  O    2.454011   0.000000
     8  O    3.000190   2.277285   0.000000
     9  O    1.428393   3.447737   4.380604   0.000000
    10  O    2.434259   4.011842   4.295748   2.905627   0.000000
    11  O    3.731247   3.223681   3.631688   4.748154   2.960607
    12  H    2.732008   3.249947   2.072768   3.757892   4.633858
    13  H    3.503821   2.685563   2.089037   4.488919   5.598842
    14  H    2.199942   2.068167   3.268967   2.546715   4.541997
    15  H    3.851035   2.048716   2.081069   5.114224   4.566511
    16  H    2.141535   2.561289   3.893737   2.606966   2.078489
    17  H    2.978495   3.284906   2.468362   4.268062   2.554719
    18  H    1.094643   3.242985   3.013718   1.999740   2.583525
    19  H    1.960625   3.319344   4.730290   0.972924   3.256689
    20  H    2.479330   4.403129   4.898287   2.438559   0.973110
    21  H    4.474096   3.763167   3.756245   5.601428   3.711120
                   11         12         13         14         15
    11  O    0.000000
    12  H    5.172919   0.000000
    13  H    5.349563   1.788935   0.000000
    14  H    4.950800   2.794110   2.461989   0.000000
    15  H    2.548838   4.034050   3.490838   4.008418   0.000000
    16  H    2.420276   4.567448   4.861381   3.409807   3.546805
    17  H    2.088968   3.687189   4.403961   4.530167   2.767913
    18  H    4.227326   2.302901   3.598145   2.868258   4.322114
    19  H    4.713237   4.372062   4.770380   2.531217   5.108053
    20  H    3.805902   4.897282   5.916008   4.535371   5.290011
    21  H    0.970744   5.510382   5.630367   5.610790   2.524972
                   16         17         18         19         20
    16  H    0.000000
    17  H    3.022486   0.000000
    18  H    3.035408   2.926826   0.000000
    19  H    2.363871   4.652307   2.815610   0.000000
    20  H    2.347882   3.447341   2.649291   2.806371   0.000000
    21  H    3.373313   2.253315   4.844371   5.621934   4.620268
                   21
    21  H    0.000000
 Stoichiometry    C6H10O5
 Framework group  C1[X(C6H10O5)]
 Deg. of freedom    57
 Full point group                 C1      NOp   1
 Largest Abelian subgroup         C1      NOp   1
 Largest concise Abelian subgroup C1      NOp   1
                         Standard orientation:                         
 ---------------------------------------------------------------------
 Center     Atomic      Atomic             Coordinates (Angstroms)
 Number     Number       Type             X           Y           Z
 ---------------------------------------------------------------------
      1          6           0        2.123074   -0.620488   -0.637436
      2          6           0        1.096669   -1.028461    0.419315
      3          6           0        0.955825    1.173718    0.225688
      4          6           0       -1.219881   -0.049930    0.045619
      5          6           0       -0.517777    1.276292   -0.250404
      6          6           0       -0.311363   -1.270358   -0.187413
      7          8           0        1.083929    0.174433    1.222519
      8          8           0        1.791218    0.760986   -0.861162
      9          8           0       -0.953855   -2.449236    0.300190
     10          8           0       -2.404223   -0.152834   -0.732109
     11          8           0       -1.227289    2.288350    0.459798
     12          1           0        2.036984   -1.167642   -1.579744
     13          1           0        3.146431   -0.708196   -0.253726
     14          1           0        1.407064   -1.861254    1.052585
     15          1           0        1.310164    2.124260    0.635808
     16          1           0       -1.467246   -0.028028    1.119003
     17          1           0       -0.525562    1.471773   -1.330333
     18          1           0       -0.228193   -1.439191   -1.265755
     19          1           0       -1.067023   -2.353395    1.261745
     20          1           0       -2.751878   -1.045709   -0.562245
     21          1           0       -0.938265    3.149159    0.116553
 ---------------------------------------------------------------------
 Rotational constants (GHZ):      1.3962415      1.2578497      0.8067118
 Standard basis: 6-31+G(d,p) (6D, 7F)
 There are   259 symmetry adapted basis functions of A   symmetry.
 Integral buffers will be    131072 words long.
 Raffenetti 2 integral format.
 Two-electron integral symmetry is turned on.
   259 basis functions,   422 primitive gaussians,   259 cartesian basis functions
    43 alpha electrons       43 beta electrons
       nuclear repulsion energy       716.8323397270 Hartrees.
 NAtoms=   21 NActive=   21 NUniq=   21 SFac= 1.00D+00 NAtFMM=   60 NAOKFM=F Big=F
 ------------------------------------------------------------------------------
 Polarizable Continuum Model (PCM)
 =================================
 Model                : C-PCM.
 Atomic radii         : SMD-Coulomb.
 Polarization charges : Total charges.
 Charge compensation  : None.
 Solution method      : Matrix inversion.
 Cavity type          : VdW (van der Waals Surface) (Alpha=1.000).
 Cavity algorithm     : GePol (No added spheres)
                        Default sphere list used, NSphG=   21.
                        Lebedev-Laikov grids with approx.  5.0 points / Ang**2.
                        Smoothing algorithm: Karplus/York (Gamma=1.0000).
                        Polarization charges: spherical gaussians, with
                                              point-specific exponents (IZeta= 3).
                        Self-potential: point-specific (ISelfS= 7).
                        Self-field    : sphere-specific E.n sum rule (ISelfD= 2).
 Solvent              : Water, Eps=  78.355300 Eps(inf)=   1.777849
 ------------------------------------------------------------------------------
 ------------------------------------------------------------------------------
 Atomic radii for non-electrostatic terms: SMD-CDS.
 ------------------------------------------------------------------------------
 Nuclear repulsion after PCM non-electrostatic terms =      716.8375379984 Hartrees.
 One-electron integrals computed using PRISM.
 NBasis=   259 RedAO= T  NBF=   259
 NBsUse=   259 1.00D-06 NBFU=   259
 Harris functional with IExCor=  402 diagonalized for initial guess.
 ExpMin= 4.38D-02 ExpMax= 5.48D+03 ExpMxC= 8.25D+02 IAcc=2 IRadAn=         4 AccDes= 0.00D+00
 HarFok:  IExCor=  402 AccDes= 0.00D+00 IRadAn=         4 IDoV= 1
 ScaDFX=  1.000000  1.000000  1.000000  1.000000
 FoFCou: FMM=F IPFlag=           0 FMFlag=      100000 FMFlg1=           0
         NFxFlg=           0 DoJE=T BraDBF=F KetDBF=T FulRan=T
         Omega=  0.000000  0.000000  1.000000  0.000000  0.000000 ICntrl=     500 IOpCl=  0
         NMat0=    1 NMatS0=    1 NMatT0=    0 NMatD0=    1 NMtDS0=    0 NMtDT0=    0
         I1Cent=           4 NGrid=           0.
 Petite list used in FoFCou.
 Initial guess orbital symmetries:
       Occupied  (A) (A) (A) (A) (A) (A) (A) (A) (A) (A) (A) (A)
                 (A) (A) (A) (A) (A) (A) (A) (A) (A) (A) (A) (A)
                 (A) (A) (A) (A) (A) (A) (A) (A) (A) (A) (A) (A)
                 (A) (A) (A) (A) (A) (A) (A)
       Virtual   (A) (A) (A) (A) (A) (A) (A) (A) (A) (A) (A) (A)
                 (A) (A) (A) (A) (A) (A) (A) (A) (A) (A) (A) (A)
                 (A) (A) (A) (A) (A) (A) (A) (A) (A) (A) (A) (A)
                 (A) (A) (A) (A) (A) (A) (A) (A) (A) (A) (A) (A)
                 (A) (A) (A) (A) (A) (A) (A) (A) (A) (A) (A) (A)
                 (A) (A) (A) (A) (A) (A) (A) (A) (A) (A) (A) (A)
                 (A) (A) (A) (A) (A) (A) (A) (A) (A) (A) (A) (A)
                 (A) (A) (A) (A) (A) (A) (A) (A) (A) (A) (A) (A)
                 (A) (A) (A) (A) (A) (A) (A) (A) (A) (A) (A) (A)
                 (A) (A) (A) (A) (A) (A) (A) (A) (A) (A) (A) (A)
                 (A) (A) (A) (A) (A) (A) (A) (A) (A) (A) (A) (A)
                 (A) (A) (A) (A) (A) (A) (A) (A) (A) (A) (A) (A)
                 (A) (A) (A) (A) (A) (A) (A) (A) (A) (A) (A) (A)
                 (A) (A) (A) (A) (A) (A) (A) (A) (A) (A) (A) (A)
                 (A) (A) (A) (A) (A) (A) (A) (A) (A) (A) (A) (A)
                 (A) (A) (A) (A) (A) (A) (A) (A) (A) (A) (A) (A)
                 (A) (A) (A) (A) (A) (A) (A) (A) (A) (A) (A) (A)
                 (A) (A) (A) (A) (A) (A) (A) (A) (A) (A) (A) (A)
 The electronic state of the initial guess is 1-A.
 Requested convergence on RMS density matrix=1.00D-08 within 128 cycles.
 Requested convergence on MAX density matrix=1.00D-06.
 Requested convergence on             energy=1.00D-06.
 No special actions if energy rises.
 Error on total polarization charges =  0.05919
 SCF Done:  E(RB3LYP) =  -610.804807909     A.U. after   12 cycles
             Convg  =    0.4638D-08             -V/T =  2.0090
 SMD-CDS (non-electrostatic) energy       (kcal/mol) =       3.26
 (included in total energy above)

 **********************************************************************

            Population analysis using the SCF density.

 **********************************************************************

 Orbital symmetries:
       Occupied  (A) (A) (A) (A) (A) (A) (A) (A) (A) (A) (A) (A)
                 (A) (A) (A) (A) (A) (A) (A) (A) (A) (A) (A) (A)
                 (A) (A) (A) (A) (A) (A) (A) (A) (A) (A) (A) (A)
                 (A) (A) (A) (A) (A) (A) (A)
       Virtual   (A) (A) (A) (A) (A) (A) (A) (A) (A) (A) (A) (A)
                 (A) (A) (A) (A) (A) (A) (A) (A) (A) (A) (A) (A)
                 (A) (A) (A) (A) (A) (A) (A) (A) (A) (A) (A) (A)
                 (A) (A) (A) (A) (A) (A) (A) (A) (A) (A) (A) (A)
                 (A) (A) (A) (A) (A) (A) (A) (A) (A) (A) (A) (A)
                 (A) (A) (A) (A) (A) (A) (A) (A) (A) (A) (A) (A)
                 (A) (A) (A) (A) (A) (A) (A) (A) (A) (A) (A) (A)
                 (A) (A) (A) (A) (A) (A) (A) (A) (A) (A) (A) (A)
                 (A) (A) (A) (A) (A) (A) (A) (A) (A) (A) (A) (A)
                 (A) (A) (A) (A) (A) (A) (A) (A) (A) (A) (A) (A)
                 (A) (A) (A) (A) (A) (A) (A) (A) (A) (A) (A) (A)
                 (A) (A) (A) (A) (A) (A) (A) (A) (A) (A) (A) (A)
                 (A) (A) (A) (A) (A) (A) (A) (A) (A) (A) (A) (A)
                 (A) (A) (A) (A) (A) (A) (A) (A) (A) (A) (A) (A)
                 (A) (A) (A) (A) (A) (A) (A) (A) (A) (A) (A) (A)
                 (A) (A) (A) (A) (A) (A) (A) (A) (A) (A) (A) (A)
                 (A) (A) (A) (A) (A) (A) (A) (A) (A) (A) (A) (A)
                 (A) (A) (A) (A) (A) (A) (A) (A) (A) (A) (A) (A)
 The electronic state is 1-A.
 Alpha  occ. eigenvalues --  -19.18362 -19.17568 -19.17290 -19.17118 -19.16885
 Alpha  occ. eigenvalues --  -10.29388 -10.25125 -10.24796 -10.24693 -10.24563
 Alpha  occ. eigenvalues --  -10.23937  -1.11108  -1.05174  -1.03812  -1.02476
 Alpha  occ. eigenvalues --   -1.01123  -0.79117  -0.78374  -0.67661  -0.65735
 Alpha  occ. eigenvalues --   -0.62808  -0.57739  -0.55210  -0.54503  -0.52777
 Alpha  occ. eigenvalues --   -0.51041  -0.47687  -0.46148  -0.45068  -0.44627
 Alpha  occ. eigenvalues --   -0.43571  -0.41587  -0.39926  -0.38554  -0.37356
 Alpha  occ. eigenvalues --   -0.35958  -0.34883  -0.34823  -0.31918  -0.30899
 Alpha  occ. eigenvalues --   -0.30077  -0.27020  -0.26371
 Alpha virt. eigenvalues --    0.01162   0.01517   0.01941   0.02914   0.03771
 Alpha virt. eigenvalues --    0.04455   0.04744   0.05348   0.06102   0.07961
 Alpha virt. eigenvalues --    0.08293   0.09504   0.09798   0.10587   0.11503
 Alpha virt. eigenvalues --    0.11921   0.12698   0.13523   0.13911   0.14455
 Alpha virt. eigenvalues --    0.15147   0.15741   0.15850   0.16167   0.16536
 Alpha virt. eigenvalues --    0.17902   0.18508   0.19939   0.20745   0.21079
 Alpha virt. eigenvalues --    0.21252   0.21758   0.22092   0.23309   0.24328
 Alpha virt. eigenvalues --    0.24779   0.25199   0.25396   0.26473   0.26783
 Alpha virt. eigenvalues --    0.27672   0.28179   0.28773   0.29781   0.30227
 Alpha virt. eigenvalues --    0.30503   0.31615   0.31838   0.32648   0.33406
 Alpha virt. eigenvalues --    0.33737   0.34459   0.34820   0.35423   0.35520
 Alpha virt. eigenvalues --    0.37079   0.37597   0.38557   0.38972   0.39686
 Alpha virt. eigenvalues --    0.41041   0.41606   0.42164   0.43812   0.44361
 Alpha virt. eigenvalues --    0.44989   0.63859   0.67490   0.68405   0.68708
 Alpha virt. eigenvalues --    0.70937   0.72811   0.74911   0.75741   0.77855
 Alpha virt. eigenvalues --    0.79856   0.81020   0.81194   0.83147   0.84932
 Alpha virt. eigenvalues --    0.86375   0.88810   0.93333   0.94409   0.96619
 Alpha virt. eigenvalues --    0.98719   1.01963   1.02983   1.04173   1.05092
 Alpha virt. eigenvalues --    1.06541   1.07779   1.08989   1.11099   1.14633
 Alpha virt. eigenvalues --    1.16374   1.21434   1.23825   1.24827   1.26217
 Alpha virt. eigenvalues --    1.26588   1.28232   1.29062   1.31072   1.31471
 Alpha virt. eigenvalues --    1.33385   1.36038   1.37232   1.38998   1.40363
 Alpha virt. eigenvalues --    1.40683   1.42742   1.44101   1.47723   1.48657
 Alpha virt. eigenvalues --    1.51447   1.54544   1.55477   1.58027   1.59230
 Alpha virt. eigenvalues --    1.60249   1.62480   1.64668   1.67049   1.68600
 Alpha virt. eigenvalues --    1.70359   1.71463   1.73127   1.78337   1.78593
 Alpha virt. eigenvalues --    1.79829   1.82719   1.83368   1.84128   1.86432
 Alpha virt. eigenvalues --    1.87356   1.92316   1.93547   1.97330   1.97522
 Alpha virt. eigenvalues --    1.99113   2.00221   2.02024   2.04519   2.07539
 Alpha virt. eigenvalues --    2.08407   2.10802   2.12409   2.15248   2.16345
 Alpha virt. eigenvalues --    2.19118   2.22164   2.23495   2.27491   2.30672
 Alpha virt. eigenvalues --    2.32401   2.35948   2.37581   2.39277   2.40280
 Alpha virt. eigenvalues --    2.45638   2.46461   2.47931   2.49001   2.49837
 Alpha virt. eigenvalues --    2.55080   2.56601   2.58389   2.62213   2.63090
 Alpha virt. eigenvalues --    2.64306   2.65002   2.66878   2.68909   2.70026
 Alpha virt. eigenvalues --    2.72377   2.74463   2.75538   2.76655   2.78632
 Alpha virt. eigenvalues --    2.82589   2.84979   2.86878   2.88272   2.92176
 Alpha virt. eigenvalues --    2.93433   2.94508   2.96689   2.99667   3.04653
 Alpha virt. eigenvalues --    3.05672   3.07268   3.10805   3.19933   3.26315
 Alpha virt. eigenvalues --    3.33097   3.35878   3.41018   3.45330   3.48485
 Alpha virt. eigenvalues --    3.50567   3.51092   3.51858   3.54970   3.60697
 Alpha virt. eigenvalues --    4.27213   4.33128   4.38768   4.41525   4.47812
 Alpha virt. eigenvalues --    4.57006   4.66008   4.70362   4.75795   4.89059
 Alpha virt. eigenvalues --    5.00427
          Condensed to atoms (all electrons):
              1          2          3          4          5          6
     1  C    5.404441  -0.027723  -0.274008   0.043867   0.094309  -0.101183
     2  C   -0.027723   6.371830  -0.341971  -0.005006   0.086434  -0.332236
     3  C   -0.274008  -0.341971   5.991993  -0.158190  -0.326675   0.228130
     4  C    0.043867  -0.005006  -0.158190   5.754841   0.022425  -0.033963
     5  C    0.094309   0.086434  -0.326675   0.022425   6.129358  -0.388415
     6  C   -0.101183  -0.332236   0.228130  -0.033963  -0.388415   6.103795
     7  O   -0.045871   0.073487   0.256300  -0.047893  -0.080779  -0.052502
     8  O    0.165202  -0.164731   0.291804   0.005654  -0.123027   0.052167
     9  O    0.000961  -0.003454  -0.010097  -0.082997   0.011697   0.207153
    10  O    0.003119   0.015192   0.050662   0.262244  -0.188696  -0.071786
    11  O    0.003671   0.009845  -0.116889  -0.141232   0.279833   0.015927
    12  H    0.446826  -0.105310   0.017055   0.002872   0.007048  -0.002657
    13  H    0.412368  -0.028563  -0.019133   0.001380   0.002547   0.001792
    14  H    0.005117   0.332893   0.014810   0.005422   0.002815  -0.026835
    15  H    0.005683   0.006392   0.392303   0.006381  -0.042251   0.012964
    16  H    0.010181  -0.037196   0.004969   0.416723  -0.074303  -0.012600
    17  H    0.013486   0.001937  -0.061363  -0.060006   0.432247  -0.016176
    18  H    0.039515  -0.167283   0.008703  -0.092474   0.016953   0.518284
    19  H    0.007377  -0.060066  -0.000632  -0.043763   0.009611   0.078541
    20  H   -0.000048   0.014891  -0.010646   0.003170   0.044289  -0.060131
    21  H    0.000495  -0.000820  -0.039068   0.020610   0.028893  -0.003359
              7          8          9         10         11         12
     1  C   -0.045871   0.165202   0.000961   0.003119   0.003671   0.446826
     2  C    0.073487  -0.164731  -0.003454   0.015192   0.009845  -0.105310
     3  C    0.256300   0.291804  -0.010097   0.050662  -0.116889   0.017055
     4  C   -0.047893   0.005654  -0.082997   0.262244  -0.141232   0.002872
     5  C   -0.080779  -0.123027   0.011697  -0.188696   0.279833   0.007048
     6  C   -0.052502   0.052167   0.207153  -0.071786   0.015927  -0.002657
     7  O    8.433341  -0.066269  -0.000794  -0.000335   0.013048   0.009204
     8  O   -0.066269   8.424165  -0.000552  -0.004970   0.002587  -0.046116
     9  O   -0.000794  -0.000552   8.329437  -0.011931  -0.000087   0.000676
    10  O   -0.000335  -0.004970  -0.011931   8.372407   0.011802   0.000084
    11  O    0.013048   0.002587  -0.000087   0.011802   8.356322   0.000001
    12  H    0.009204  -0.046116   0.000676   0.000084   0.000001   0.533978
    13  H   -0.002052  -0.047937  -0.000125  -0.000015   0.000020  -0.039738
    14  H   -0.032465   0.008516  -0.002034  -0.000260   0.000051   0.001781
    15  H   -0.049223  -0.045801  -0.000051  -0.000568  -0.003544  -0.000261
    16  H    0.009726  -0.000167  -0.012396  -0.050697  -0.000871  -0.000002
    17  H    0.010964  -0.001702  -0.000362   0.001572  -0.044428  -0.000051
    18  H    0.010243   0.000095  -0.068608   0.000216  -0.000128   0.001494
    19  H    0.002922  -0.000100   0.248109  -0.001230  -0.000101  -0.000003
    20  H    0.000101   0.000124   0.017736   0.240317  -0.000957  -0.000002
    21  H   -0.000622   0.000435   0.000009  -0.001606   0.243879   0.000000
             13         14         15         16         17         18
     1  C    0.412368   0.005117   0.005683   0.010181   0.013486   0.039515
     2  C   -0.028563   0.332893   0.006392  -0.037196   0.001937  -0.167283
     3  C   -0.019133   0.014810   0.392303   0.004969  -0.061363   0.008703
     4  C    0.001380   0.005422   0.006381   0.416723  -0.060006  -0.092474
     5  C    0.002547   0.002815  -0.042251  -0.074303   0.432247   0.016953
     6  C    0.001792  -0.026835   0.012964  -0.012600  -0.016176   0.518284
     7  O   -0.002052  -0.032465  -0.049223   0.009726   0.010964   0.010243
     8  O   -0.047937   0.008516  -0.045801  -0.000167  -0.001702   0.000095
     9  O   -0.000125  -0.002034  -0.000051  -0.012396  -0.000362  -0.068608
    10  O   -0.000015  -0.000260  -0.000568  -0.050697   0.001572   0.000216
    11  O    0.000020   0.000051  -0.003544  -0.000871  -0.044428  -0.000128
    12  H   -0.039738   0.001781  -0.000261  -0.000002  -0.000051   0.001494
    13  H    0.556447  -0.002935   0.000644   0.000004  -0.000028   0.000219
    14  H   -0.002935   0.506166  -0.000042   0.000033   0.000013   0.002605
    15  H    0.000644  -0.000042   0.543914  -0.000215   0.000046   0.000006
    16  H    0.000004   0.000033  -0.000215   0.568502   0.004442   0.004443
    17  H   -0.000028   0.000013   0.000046   0.004442   0.545127   0.001943
    18  H    0.000219   0.002605   0.000006   0.004443   0.001943   0.537619
    19  H    0.000000   0.000500   0.000001   0.004508   0.000010   0.006705
    20  H    0.000000  -0.000009   0.000005  -0.004053   0.000102  -0.001131
    21  H    0.000000   0.000000   0.002295   0.000267  -0.006284   0.000006
             19         20         21
     1  C    0.007377  -0.000048   0.000495
     2  C   -0.060066   0.014891  -0.000820
     3  C   -0.000632  -0.010646  -0.039068
     4  C   -0.043763   0.003170   0.020610
     5  C    0.009611   0.044289   0.028893
     6  C    0.078541  -0.060131  -0.003359
     7  O    0.002922   0.000101  -0.000622
     8  O   -0.000100   0.000124   0.000435
     9  O    0.248109   0.017736   0.000009
    10  O   -0.001230   0.240317  -0.001606
    11  O   -0.000101  -0.000957   0.243879
    12  H   -0.000003  -0.000002   0.000000
    13  H    0.000000   0.000000   0.000000
    14  H    0.000500  -0.000009   0.000000
    15  H    0.000001   0.000005   0.002295
    16  H    0.004508  -0.004053   0.000267
    17  H    0.000010   0.000102  -0.006284
    18  H    0.006705  -0.001131   0.000006
    19  H    0.342236  -0.000598   0.000000
    20  H   -0.000598   0.347587   0.000023
    21  H    0.000000   0.000023   0.339101
 Mulliken atomic charges:
              1
     1  C   -0.207787
     2  C    0.361459
     3  C    0.101944
     4  C    0.119936
     5  C    0.055688
     6  C   -0.116908
     7  O   -0.440531
     8  O   -0.449378
     9  O   -0.622291
    10  O   -0.625521
    11  O   -0.628749
    12  H    0.173120
    13  H    0.165103
    14  H    0.183859
    15  H    0.171322
    16  H    0.168701
    17  H    0.178512
    18  H    0.180573
    19  H    0.405973
    20  H    0.409230
    21  H    0.415744
 Sum of Mulliken atomic charges =   0.00000
 Mulliken charges with hydrogens summed into heavy atoms:
              1
     1  C    0.130437
     2  C    0.545318
     3  C    0.273266
     4  C    0.288637
     5  C    0.234200
     6  C    0.063665
     7  O   -0.440531
     8  O   -0.449378
     9  O   -0.216318
    10  O   -0.216291
    11  O   -0.213005
 Sum of Mulliken charges with hydrogens summed into heavy atoms =   0.00000
 Electronic spatial extent (au):  <R**2>=           1513.9596
 Charge=              0.0000 electrons
 Dipole moment (field-independent basis, Debye):
    X=              2.4834    Y=             -1.4666    Z=              0.5225  Tot=              2.9311
 Quadrupole moment (field-independent basis, Debye-Ang):
   XX=            -71.1673   YY=            -58.7182   ZZ=            -67.3391
   XY=              0.6319   XZ=             -2.6503   YZ=             -4.3588
 Traceless Quadrupole moment (field-independent basis, Debye-Ang):
   XX=             -5.4258   YY=              7.0233   ZZ=             -1.5976
   XY=              0.6319   XZ=             -2.6503   YZ=             -4.3588
 Octapole moment (field-independent basis, Debye-Ang**2):
  XXX=             11.3699  YYY=             54.7292  ZZZ=              1.3157  XYY=              6.4504
  XXY=            -29.8857  XXZ=              8.7983  XZZ=             -5.7268  YZZ=            -15.7619
  YYZ=              3.7450  XYZ=             10.7194
 Hexadecapole moment (field-independent basis, Debye-Ang**3):
 XXXX=           -875.9156 YYYY=           -694.0357 ZZZZ=           -241.0169 XXXY=             34.9809
 XXXZ=             -7.7597 YYYX=            -21.3037 YYYZ=            -34.0483 ZZZX=            -13.3292
 ZZZY=            -14.1843 XXYY=           -271.1331 XXZZ=           -197.7497 YYZZ=           -148.5369
 XXYZ=              5.1331 YYXZ=             10.3040 ZZXY=              5.1024
 N-N= 7.168375379984D+02 E-N=-2.863595511944D+03  KE= 6.053272319337D+02

 Test job not archived.
 1\1\GINC-COMPUTE-10-4\SP\RB3LYP\6-31+G(d,p)\C6H10O5\ASAROTTI.IQUIR\15-
 Apr-2019\0\\# B3LYP/6-31+G** test scrf=(pcm,solvent=water,smd,dovacuum
 )\\comment\\0,1\C,0,2.123074,-0.620488,-0.637436\C,0,1.096669,-1.02846
 1,0.419315\C,0,0.955825,1.173718,0.225688\C,0,-1.219881,-0.04993,0.045
 619\C,0,-0.517777,1.276292,-0.250404\C,0,-0.311363,-1.270358,-0.187413
 \O,0,1.083929,0.174433,1.222519\O,0,1.791218,0.760986,-0.861162\O,0,-0
 .953855,-2.449236,0.30019\O,0,-2.404223,-0.152834,-0.732109\O,0,-1.227
 289,2.28835,0.459798\H,0,2.036984,-1.167642,-1.579744\H,0,3.146431,-0.
 708195,-0.253726\H,0,1.407064,-1.861254,1.052585\H,0,1.310164,2.12426,
 0.635808\H,0,-1.467246,-0.028028,1.119003\H,0,-0.525562,1.471773,-1.33
 0333\H,0,-0.228193,-1.439191,-1.265755\H,0,-1.067023,-2.353395,1.26174
 5\H,0,-2.751878,-1.045709,-0.562245\H,0,-0.938266,3.149159,0.116553\\V
 ersion=EM64L-G09RevC.01\State=1-A\HF=-610.8048079\RMSD=4.638e-09\Dipol
 e=0.9770584,-0.5769972,0.2055642\Quadrupole=-4.0339286,5.2216796,-1.18
 7751,0.4697663,-1.9704115,-3.2406596\PG=C01 [X(C6H10O5)]\\@


 We find comfort among those who agree with us -- growth among those who don't.
 -- Frank A. Clark
 Job cpu time:  0 days  0 hours  5 minutes 31.4 seconds.
 File lengths (MBytes):  RWF=     56 Int=      0 D2E=      0 Chk=      4 Scr=      1
 Normal termination of Gaussian 09 at Mon Apr 15 17:43:42 2019.
