 Entering Gaussian System, Link 0=g09
 Input=/home/mmarcarino.iquir/NMR/02_RSS_Levo01_OPTB_nmr.gjc
 Output=/home/mmarcarino.iquir/NMR/02_RSS_Levo01_OPTB_nmr.log
 Initial command:
 /share/apps/Gaussian09/EM64T.SSE4.2-enabled/g09/l1.exe /tmp/Gau-51258.inp -scrdir=/tmp/
 Entering Link 1 = /share/apps/Gaussian09/EM64T.SSE4.2-enabled/g09/l1.exe PID=     51259.
  
 Copyright (c) 1988,1990,1992,1993,1995,1998,2003,2009,2011,
            Gaussian, Inc.  All Rights Reserved.
  
 This is part of the Gaussian(R) 09 program.  It is based on
 the Gaussian(R) 03 system (copyright 2003, Gaussian, Inc.),
 the Gaussian(R) 98 system (copyright 1998, Gaussian, Inc.),
 the Gaussian(R) 94 system (copyright 1995, Gaussian, Inc.),
 the Gaussian 92(TM) system (copyright 1992, Gaussian, Inc.),
 the Gaussian 90(TM) system (copyright 1990, Gaussian, Inc.),
 the Gaussian 88(TM) system (copyright 1988, Gaussian, Inc.),
 the Gaussian 86(TM) system (copyright 1986, Carnegie Mellon
 University), and the Gaussian 82(TM) system (copyright 1983,
 Carnegie Mellon University). Gaussian is a federally registered
 trademark of Gaussian, Inc.
  
 This software contains proprietary and confidential information,
 including trade secrets, belonging to Gaussian, Inc.
  
 This software is provided under written license and may be
 used, copied, transmitted, or stored only in accord with that
 written license.
  
 The following legend is applicable only to US Government
 contracts under FAR:
  
                    RESTRICTED RIGHTS LEGEND
  
 Use, reproduction and disclosure by the US Government is
 subject to restrictions as set forth in subparagraphs (a)
 and (c) of the Commercial Computer Software - Restricted
 Rights clause in FAR 52.227-19.
  
 Gaussian, Inc.
 340 Quinnipiac St., Bldg. 40, Wallingford CT 06492
  
  
 ---------------------------------------------------------------
 Warning -- This program may not be used in any manner that
 competes with the business of Gaussian, Inc. or will provide
 assistance to any competitor of Gaussian, Inc.  The licensee
 of this program is prohibited from giving any competitor of
 Gaussian, Inc. access to this program.  By using this program,
 the user acknowledges that Gaussian, Inc. is engaged in the
 business of creating and licensing software in the field of
 computational chemistry and represents and warrants to the
 licensee that it is not a competitor of Gaussian, Inc. and that
 it will not use this program in any manner prohibited above.
 ---------------------------------------------------------------
  

 Cite this work as:
 Gaussian 09, Revision C.01,
 M. J. Frisch, G. W. Trucks, H. B. Schlegel, G. E. Scuseria, 
 M. A. Robb, J. R. Cheeseman, G. Scalmani, V. Barone, B. Mennucci, 
 G. A. Petersson, H. Nakatsuji, M. Caricato, X. Li, H. P. Hratchian, 
 A. F. Izmaylov, J. Bloino, G. Zheng, J. L. Sonnenberg, M. Hada, 
 M. Ehara, K. Toyota, R. Fukuda, J. Hasegawa, M. Ishida, T. Nakajima, 
 Y. Honda, O. Kitao, H. Nakai, T. Vreven, J. A. Montgomery, Jr., 
 J. E. Peralta, F. Ogliaro, M. Bearpark, J. J. Heyd, E. Brothers, 
 K. N. Kudin, V. N. Staroverov, T. Keith, R. Kobayashi, J. Normand, 
 K. Raghavachari, A. Rendell, J. C. Burant, S. S. Iyengar, J. Tomasi, 
 M. Cossi, N. Rega, J. M. Millam, M. Klene, J. E. Knox, J. B. Cross, 
 V. Bakken, C. Adamo, J. Jaramillo, R. Gomperts, R. E. Stratmann, 
 O. Yazyev, A. J. Austin, R. Cammi, C. Pomelli, J. W. Ochterski, 
 R. L. Martin, K. Morokuma, V. G. Zakrzewski, G. A. Voth, 
 P. Salvador, J. J. Dannenberg, S. Dapprich, A. D. Daniels, 
 O. Farkas, J. B. Foresman, J. V. Ortiz, J. Cioslowski, 
 and D. J. Fox, Gaussian, Inc., Wallingford CT, 2010.
 
 ******************************************
 Gaussian 09:  EM64L-G09RevC.01 23-Sep-2011
                12-Apr-2019 
 ******************************************
 %nprocshared=4
 Will use up to    4 processors via shared memory.
 ------------------------------------------------
 # mpw1pw91/6-31+g** nmr scrf=(pcm,solvent=water)
 ------------------------------------------------
 1/38=1/1;
 2/12=2,17=6,18=5,40=1/2;
 3/5=1,6=6,7=111,11=2,16=1,25=1,30=1,70=2201,72=1,74=-7/1,2,8,3;
 4//1;
 5/5=2,38=5,53=1/2;
 8/6=1,10=90,11=11/1;
 10/13=100,45=16/2;
 6/7=2,8=2,9=2,10=2,28=1/1;
 99/9=1/99;
 -------
 comment
 -------
 Charge =  0 Multiplicity = 1
 Symbolic Z-Matrix:
 6                    -2.13979   0.21511  -0.49993 
 6                    -1.34197   0.56163   0.76311 
 6                    -0.56623  -1.38007   0.02737 
 6                     1.1603    0.38677   0.4547 
 6                     0.84852  -0.86929  -0.36004 
 6                    -0.02931   1.3622    0.49674 
 8                    -0.99862  -0.7623    1.22932 
 8                    -1.51225  -0.99476  -0.9671 
 8                    -0.12316   2.08066  -0.72783 
 8                     2.2682    1.10633  -0.08092 
 8                     1.8896   -1.79714  -0.05433 
 1                    -2.08283   0.98171  -1.27233 
 1                    -3.18622   0.00813  -0.24904 
 1                    -1.95017   1.03331   1.53504 
 1                    -0.58293  -2.46525   0.16311 
 1                     1.37783   0.05902   1.47896 
 1                     0.84669  -0.62783  -1.42948 
 1                     0.80142   2.24676  -0.99038 
 1                     2.95166   0.44807  -0.29261 
 1                     1.90974  -2.47103  -0.75244 
 1                     0.1355    2.06672   1.3244 
 
                          Input orientation:                          
 ---------------------------------------------------------------------
 Center     Atomic      Atomic             Coordinates (Angstroms)
 Number     Number       Type             X           Y           Z
 ---------------------------------------------------------------------
      1          6           0       -2.139786    0.215106   -0.499930
      2          6           0       -1.341973    0.561627    0.763109
      3          6           0       -0.566231   -1.380070    0.027365
      4          6           0        1.160297    0.386768    0.454695
      5          6           0        0.848522   -0.869289   -0.360037
      6          6           0       -0.029314    1.362203    0.496742
      7          8           0       -0.998623   -0.762299    1.229317
      8          8           0       -1.512250   -0.994759   -0.967100
      9          8           0       -0.123155    2.080657   -0.727827
     10          8           0        2.268199    1.106334   -0.080923
     11          8           0        1.889604   -1.797142   -0.054327
     12          1           0       -2.082829    0.981708   -1.272326
     13          1           0       -3.186215    0.008131   -0.249043
     14          1           0       -1.950165    1.033314    1.535037
     15          1           0       -0.582927   -2.465250    0.163109
     16          1           0        1.377831    0.059019    1.478957
     17          1           0        0.846688   -0.627827   -1.429482
     18          1           0        0.801422    2.246764   -0.990382
     19          1           0        2.951664    0.448070   -0.292606
     20          1           0        1.909736   -2.471033   -0.752440
     21          1           0        0.135499    2.066720    1.324396
 ---------------------------------------------------------------------
                    Distance matrix (angstroms):
                    1          2          3          4          5
     1  C    0.000000
     2  C    1.533574   0.000000
     3  C    2.301891   2.216592   0.000000
     4  C    3.439669   2.527261   2.507035   0.000000
     5  C    3.182054   2.847323   1.553224   1.529271   0.000000
     6  C    2.600630   1.560432   2.833488   1.538966   2.546414
     7  O    2.290823   1.444998   1.418905   2.565410   2.439147
     8  O    1.440772   2.333443   1.425615   3.327555   2.440802
     9  O    2.756632   2.452725   3.569771   2.432050   3.127556
    10  O    4.516657   3.747324   3.771992   1.425521   2.448770
    11  O    4.525891   4.083514   2.492338   2.358062   1.427663
    12  H    1.089733   2.206430   3.093099   3.722153   3.584868
    13  H    1.095809   2.175325   2.977888   4.419364   4.130531
    14  H    2.201479   1.090073   3.164296   3.355612   3.878641
    15  H    3.169817   3.177756   1.093765   3.355273   2.206767
    16  H    4.039058   2.856989   2.820899   1.097202   2.126928
    17  H    3.239387   3.318508   2.164397   2.162840   1.096367
    18  H    3.608169   3.241691   4.007519   2.382567   3.179519
    19  H    5.100992   4.422980   3.977444   1.941961   2.482577
    20  H    4.865977   4.697609   2.815796   3.191529   1.961056
    21  H    3.454499   2.182492   3.749010   2.151471   3.459171
                    6          7          8          9         10
     6  C    0.000000
     7  O    2.447393   0.000000
     8  O    3.145982   2.267619   0.000000
     9  O    1.422867   3.560794   3.383049   0.000000
    10  O    2.382799   3.985053   4.414940   2.662023   0.000000
    11  O    3.737296   3.325733   3.612421   4.420648   2.928176
    12  H    2.737024   3.236554   2.079698   2.311815   4.512917
    13  H    3.515072   2.750394   2.079316   3.729200   5.566412
    14  H    2.208142   2.055024   3.250468   3.091189   4.517882
    15  H    3.881648   2.051742   2.074454   4.655151   4.576536
    16  H    2.154783   2.526740   3.930167   3.348115   2.079146
    17  H    2.904813   3.239208   2.431671   2.961216   2.616605
    18  H    1.919403   4.149902   3.982599   0.975382   2.068606
    19  H    3.216355   4.402955   4.739539   3.508457   0.972237
    20  H    4.473709   3.912248   3.733022   4.985091   3.657456
    21  H    1.099326   3.049364   4.163975   2.068506   2.728676
                   11         12         13         14         15
    11  O    0.000000
    12  H    4.998575   0.000000
    13  H    5.390813   1.792323   0.000000
    14  H    5.028060   2.810970   2.400367   0.000000
    15  H    2.570419   4.023891   3.614497   3.998934   0.000000
    16  H    2.461342   4.516313   4.880480   3.468134   3.456582
    17  H    2.084712   3.346247   4.249963   4.401153   2.820686
    18  H    4.291097   3.162082   4.632743   3.927013   5.044803
    19  H    2.495140   5.156621   6.153780   5.264097   4.603091
    20  H    0.970513   5.303987   5.689322   5.693139   2.655491
    21  H    4.461748   3.583461   4.212752   2.337155   4.733231
                   16         17         18         19         20
    16  H    0.000000
    17  H    3.035274   0.000000
    18  H    3.349046   2.908287   0.000000
    19  H    2.401405   2.623159   2.888898   0.000000
    20  H    3.415145   2.232905   4.852070   3.133404   0.000000
    21  H    2.366039   3.917935   2.415381   3.628431   5.296449
                   21
    21  H    0.000000
 Stoichiometry    C6H10O5
 Framework group  C1[X(C6H10O5)]
 Deg. of freedom    57
 Full point group                 C1      NOp   1
 Largest Abelian subgroup         C1      NOp   1
 Largest concise Abelian subgroup C1      NOp   1
                         Standard orientation:                         
 ---------------------------------------------------------------------
 Center     Atomic      Atomic             Coordinates (Angstroms)
 Number     Number       Type             X           Y           Z
 ---------------------------------------------------------------------
      1          6           0       -2.139786    0.215106   -0.499930
      2          6           0       -1.341973    0.561627    0.763109
      3          6           0       -0.566231   -1.380070    0.027365
      4          6           0        1.160297    0.386768    0.454695
      5          6           0        0.848522   -0.869289   -0.360037
      6          6           0       -0.029314    1.362203    0.496742
      7          8           0       -0.998623   -0.762299    1.229317
      8          8           0       -1.512250   -0.994759   -0.967100
      9          8           0       -0.123155    2.080657   -0.727827
     10          8           0        2.268199    1.106334   -0.080923
     11          8           0        1.889604   -1.797142   -0.054327
     12          1           0       -2.082829    0.981708   -1.272326
     13          1           0       -3.186215    0.008131   -0.249043
     14          1           0       -1.950165    1.033314    1.535037
     15          1           0       -0.582927   -2.465250    0.163109
     16          1           0        1.377831    0.059019    1.478957
     17          1           0        0.846688   -0.627827   -1.429482
     18          1           0        0.801422    2.246764   -0.990382
     19          1           0        2.951664    0.448070   -0.292606
     20          1           0        1.909736   -2.471033   -0.752440
     21          1           0        0.135499    2.066720    1.324396
 ---------------------------------------------------------------------
 Rotational constants (GHZ):      1.5477793      1.2368158      0.8680111
 Standard basis: 6-31+G(d,p) (6D, 7F)
 There are   259 symmetry adapted basis functions of A   symmetry.
 Integral buffers will be    131072 words long.
 Raffenetti 2 integral format.
 Two-electron integral symmetry is turned on.
   259 basis functions,   422 primitive gaussians,   259 cartesian basis functions
    43 alpha electrons       43 beta electrons
       nuclear repulsion energy       725.4512765665 Hartrees.
 NAtoms=   21 NActive=   21 NUniq=   21 SFac= 1.00D+00 NAtFMM=   60 NAOKFM=F Big=F
 ------------------------------------------------------------------------------
 Polarizable Continuum Model (PCM)
 =================================
 Model                : PCM.
 Atomic radii         : UFF (Universal Force Field).
 Polarization charges : Total charges.
 Charge compensation  : None.
 Solution method      : Matrix inversion.
 Cavity type          : Scaled VdW (van der Waals Surface) (Alpha=1.100).
 Cavity algorithm     : GePol (No added spheres)
                        Default sphere list used, NSphG=   21.
                        Lebedev-Laikov grids with approx.  5.0 points / Ang**2.
                        Smoothing algorithm: Karplus/York (Gamma=1.0000).
                        Polarization charges: spherical gaussians, with
                                              point-specific exponents (IZeta= 3).
                        Self-potential: point-specific (ISelfS= 7).
                        Self-field    : sphere-specific E.n sum rule (ISelfD= 2).
 Solvent              : Water, Eps=  78.355300 Eps(inf)=   1.777849
 ------------------------------------------------------------------------------
 One-electron integrals computed using PRISM.
 NBasis=   259 RedAO= T  NBF=   259
 NBsUse=   259 1.00D-06 NBFU=   259
 Harris functional with IExCor=  908 diagonalized for initial guess.
 ExpMin= 4.38D-02 ExpMax= 5.48D+03 ExpMxC= 8.25D+02 IAcc=2 IRadAn=         4 AccDes= 0.00D+00
 HarFok:  IExCor=  908 AccDes= 0.00D+00 IRadAn=         4 IDoV= 1
 ScaDFX=  1.000000  1.000000  1.000000  1.000000
 FoFCou: FMM=F IPFlag=           0 FMFlag=      100000 FMFlg1=           0
         NFxFlg=           0 DoJE=T BraDBF=F KetDBF=T FulRan=T
         Omega=  0.000000  0.000000  1.000000  0.000000  0.000000 ICntrl=     500 IOpCl=  0
         NMat0=    1 NMatS0=    1 NMatT0=    0 NMatD0=    1 NMtDS0=    0 NMtDT0=    0
         I1Cent=           4 NGrid=           0.
 Petite list used in FoFCou.
 Initial guess orbital symmetries:
       Occupied  (A) (A) (A) (A) (A) (A) (A) (A) (A) (A) (A) (A)
                 (A) (A) (A) (A) (A) (A) (A) (A) (A) (A) (A) (A)
                 (A) (A) (A) (A) (A) (A) (A) (A) (A) (A) (A) (A)
                 (A) (A) (A) (A) (A) (A) (A)
       Virtual   (A) (A) (A) (A) (A) (A) (A) (A) (A) (A) (A) (A)
                 (A) (A) (A) (A) (A) (A) (A) (A) (A) (A) (A) (A)
                 (A) (A) (A) (A) (A) (A) (A) (A) (A) (A) (A) (A)
                 (A) (A) (A) (A) (A) (A) (A) (A) (A) (A) (A) (A)
                 (A) (A) (A) (A) (A) (A) (A) (A) (A) (A) (A) (A)
                 (A) (A) (A) (A) (A) (A) (A) (A) (A) (A) (A) (A)
                 (A) (A) (A) (A) (A) (A) (A) (A) (A) (A) (A) (A)
                 (A) (A) (A) (A) (A) (A) (A) (A) (A) (A) (A) (A)
                 (A) (A) (A) (A) (A) (A) (A) (A) (A) (A) (A) (A)
                 (A) (A) (A) (A) (A) (A) (A) (A) (A) (A) (A) (A)
                 (A) (A) (A) (A) (A) (A) (A) (A) (A) (A) (A) (A)
                 (A) (A) (A) (A) (A) (A) (A) (A) (A) (A) (A) (A)
                 (A) (A) (A) (A) (A) (A) (A) (A) (A) (A) (A) (A)
                 (A) (A) (A) (A) (A) (A) (A) (A) (A) (A) (A) (A)
                 (A) (A) (A) (A) (A) (A) (A) (A) (A) (A) (A) (A)
                 (A) (A) (A) (A) (A) (A) (A) (A) (A) (A) (A) (A)
                 (A) (A) (A) (A) (A) (A) (A) (A) (A) (A) (A) (A)
                 (A) (A) (A) (A) (A) (A) (A) (A) (A) (A) (A) (A)
 The electronic state of the initial guess is 1-A.
 Requested convergence on RMS density matrix=1.00D-08 within 128 cycles.
 Requested convergence on MAX density matrix=1.00D-06.
 Requested convergence on             energy=1.00D-06.
 No special actions if energy rises.
 Error on total polarization charges =  0.01163
 SCF Done:  E(RmPW1PW91) =  -610.643566619     A.U. after   12 cycles
             Convg  =    0.4786D-08             -V/T =  2.0090
 Range of M.O.s used for correlation:     1   259
 NBasis=   259 NAE=    43 NBE=    43 NFC=     0 NFV=     0
 NROrb=    259 NOA=    43 NOB=    43 NVA=   216 NVB=   216

 **** Warning!!: The largest alpha MO coefficient is  0.57089700D+02

 NEqPCM:  Using equilibrium solvation (IEInf=0, Eps=  78.3553, EpsInf=   1.7778)
          Differentiating once with respect to magnetic field using GIAOs.
          Electric field/nuclear overlap derivatives assumed to be zero.
 FoFCou: FMM=F IPFlag=           0 FMFlag=    10101102 FMFlg1=           0
         NFxFlg=    40000000 DoJE=F BraDBF=F KetDBF=T FulRan=T
         Omega=  0.000000  0.000000  1.000000  0.000000  0.000000 ICntrl=    6100 IOpCl=  0
         NMat0=    1 NMatS0=    1 NMatT0=    0 NMatD0=    1 NMtDS0=    0 NMtDT0=    0
         I1Cent=           7 NGrid=        1522.
 Symmetry not used in FoFCou.
          There are     3 degrees of freedom in the 1st order CPHF.  IDoFFX=0.
      3 vectors produced by pass  0 Test12= 3.10D-13 3.33D-08 XBig12= 2.13D+01 8.49D-01.
 AX will form     3 AO Fock derivatives at one time.
      3 vectors produced by pass  1 Test12= 3.10D-13 3.33D-08 XBig12= 4.94D-02 2.75D-02.
      3 vectors produced by pass  2 Test12= 3.10D-13 3.33D-08 XBig12= 1.16D-04 1.53D-03.
      3 vectors produced by pass  3 Test12= 3.10D-13 3.33D-08 XBig12= 5.85D-07 1.16D-04.
      3 vectors produced by pass  4 Test12= 3.10D-13 3.33D-08 XBig12= 1.85D-09 5.87D-06.
      3 vectors produced by pass  5 Test12= 3.10D-13 3.33D-08 XBig12= 5.13D-12 2.86D-07.
 Inverted reduced A of dimension    18 with in-core refinement.
 Calculating GIAO nuclear magnetic shielding tensors.
 SCF GIAO Magnetic shielding tensor (ppm):
      1  C    Isotropic =   133.7752   Anisotropy =    66.3863
   XX=   123.3331   YX=   -27.5308   ZX=    -2.9512
   XY=   -22.6032   YY=   155.4233   ZY=    28.6338
   XZ=    -5.6378   YZ=    16.9525   ZZ=   122.5691
   Eigenvalues:   104.6530   118.6398   178.0327
      2  C    Isotropic =   119.3909   Anisotropy =    53.3338
   XX=   104.9928   YX=    -3.2818   ZX=    20.1842
   XY=   -10.0780   YY=   144.8709   ZY=   -15.0512
   XZ=    10.6194   YZ=   -20.0548   ZZ=   108.3090
   Eigenvalues:    90.1477   113.0782   154.9468
      3  C    Isotropic =    89.4494   Anisotropy =    23.0516
   XX=    96.3276   YX=   -15.0665   ZX=    11.5151
   XY=    -8.3873   YY=    76.1878   ZY=    -0.9287
   XZ=     3.0733   YZ=     9.4567   ZZ=    95.8329
   Eigenvalues:    68.9692    94.5619   104.8172
      4  C    Isotropic =   124.8868   Anisotropy =    34.7456
   XX=   130.9546   YX=    14.2536   ZX=    -4.4169
   XY=    13.5921   YY=   125.6976   ZY=    -3.7384
   XZ=   -15.1376   YZ=   -13.1577   ZZ=   118.0082
   Eigenvalues:   112.4189   114.1910   148.0506
      5  C    Isotropic =   117.7190   Anisotropy =    28.2549
   XX=   134.4103   YX=   -13.8128   ZX=     4.4824
   XY=     6.4794   YY=   113.5630   ZY=    -5.0251
   XZ=     5.5078   YZ=   -14.2416   ZZ=   105.1838
   Eigenvalues:    98.7307   117.8708   136.5556
      6  C    Isotropic =   129.4167   Anisotropy =    42.1089
   XX=   119.1777   YX=    -1.3900   ZX=     1.0041
   XY=    -3.1275   YY=   128.5905   ZY=   -25.9624
   XZ=     5.4066   YZ=   -17.5465   ZZ=   140.4818
   Eigenvalues:   111.9806   118.7802   157.4893
      7  O    Isotropic =   244.9093   Anisotropy =    57.4373
   XX=   235.5875   YX=   -35.0732   ZX=     0.7456
   XY=   -35.3351   YY=   221.4608   ZY=     2.1174
   XZ=    28.6194   YZ=     7.6807   ZZ=   277.6796
   Eigenvalues:   190.6276   260.8995   283.2009
      8  O    Isotropic =   255.9885   Anisotropy =   122.1173
   XX=   256.1829   YX=   -47.2495   ZX=    45.7564
   XY=   -37.1093   YY=   195.2541   ZY=    16.4191
   XZ=    35.0039   YZ=    45.0775   ZZ=   316.5285
   Eigenvalues:   159.9552   270.6102   337.4001
      9  O    Isotropic =   312.3929   Anisotropy =    45.9663
   XX=   334.0687   YX=    17.7131   ZX=    -3.1759
   XY=    24.8312   YY=   291.7398   ZY=    18.0899
   XZ=     1.5513   YZ=    -3.9206   ZZ=   311.3703
   Eigenvalues:   281.3300   312.8117   343.0371
     10  O    Isotropic =   309.1057   Anisotropy =    26.7827
   XX=   314.0179   YX=     0.6597   ZX=   -13.3957
   XY=    -5.2152   YY=   311.4050   ZY=    16.0272
   XZ=   -12.7105   YZ=     6.2399   ZZ=   301.8943
   Eigenvalues:   290.1217   310.2346   326.9609
     11  O    Isotropic =   296.0264   Anisotropy =    42.1593
   XX=   283.1411   YX=     4.7372   ZX=    11.3428
   XY=   -22.9084   YY=   318.4566   ZY=    12.7826
   XZ=    15.7061   YZ=    15.2624   ZZ=   286.4816
   Eigenvalues:   266.1700   297.7766   324.1327
     12  H    Isotropic =    26.9626   Anisotropy =     6.0103
   XX=    27.0157   YX=    -0.2692   ZX=     2.1153
   XY=    -0.6291   YY=    28.6793   ZY=    -3.8349
   XZ=     2.6016   YZ=    -1.8854   ZZ=    25.1927
   Eigenvalues:    22.7356    27.1827    30.9695
     13  H    Isotropic =    28.0492   Anisotropy =    11.7722
   XX=    35.4423   YX=    -1.3981   ZX=    -0.2800
   XY=    -2.1499   YY=    25.0379   ZY=     2.0276
   XZ=    -1.9829   YZ=     1.3383   ZZ=    23.6674
   Eigenvalues:    22.5353    25.7150    35.8973
     14  H    Isotropic =    26.7243   Anisotropy =     8.4007
   XX=    26.8164   YX=    -2.2490   ZX=    -4.1461
   XY=    -1.2533   YY=    26.7463   ZY=     3.5260
   XZ=    -3.1932   YZ=     2.2452   ZZ=    26.6102
   Eigenvalues:    22.7636    25.0845    32.3247
     15  H    Isotropic =    26.3118   Anisotropy =     6.6262
   XX=    24.9049   YX=    -0.1866   ZX=     0.4412
   XY=    -0.5734   YY=    30.7016   ZY=     0.1955
   XZ=     0.4211   YZ=    -0.4299   ZZ=    23.3288
   Eigenvalues:    23.2185    24.9875    30.7292
     16  H    Isotropic =    27.9439   Anisotropy =     3.9504
   XX=    28.5451   YX=     1.6586   ZX=     0.1213
   XY=     1.0058   YY=    25.3791   ZY=    -1.7419
   XZ=     1.4163   YZ=    -1.8270   ZZ=    29.9076
   Eigenvalues:    24.2301    29.0242    30.5775
     17  H    Isotropic =    28.0688   Anisotropy =     4.3774
   XX=    29.0975   YX=    -2.6718   ZX=     0.6287
   XY=    -2.9775   YY=    26.5550   ZY=    -0.5631
   XZ=     0.1346   YZ=     0.2987   ZZ=    28.5538
   Eigenvalues:    24.7263    28.4929    30.9870
     18  H    Isotropic =    28.4075   Anisotropy =    17.9343
   XX=    38.2814   YX=     2.1139   ZX=    -3.8323
   XY=     2.3942   YY=    24.0236   ZY=    -7.1399
   XZ=    -4.5875   YZ=    -6.0336   ZZ=    22.9175
   Eigenvalues:    16.7370    28.1218    40.3637
     19  H    Isotropic =    28.9983   Anisotropy =    18.2612
   XX=    36.2976   YX=    -5.5390   ZX=    -4.5864
   XY=    -5.8993   YY=    31.0297   ZY=     1.3018
   XZ=    -4.8180   YZ=     2.9300   ZZ=    19.6677
   Eigenvalues:    18.3976    27.4250    41.1724
     20  H    Isotropic =    29.3844   Anisotropy =    19.6827
   XX=    24.8060   YX=    -5.2554   ZX=    -0.0955
   XY=    -4.2336   YY=    33.8196   ZY=     9.9390
   XZ=    -1.0437   YZ=     9.3615   ZZ=    29.5275
   Eigenvalues:    20.1489    25.4980    42.5061
     21  H    Isotropic =    27.0547   Anisotropy =     8.0874
   XX=    23.3129   YX=     0.3561   ZX=     0.4916
   XY=     0.6531   YY=    27.1441   ZY=     2.5130
   XZ=    -0.1759   YZ=     3.5224   ZZ=    30.7070
   Eigenvalues:    23.2373    25.4804    32.4463
 End of Minotr Frequency-dependent properties file   721 does not exist.
 End of Minotr Frequency-dependent properties file   722 does not exist.

 **********************************************************************

            Population analysis using the SCF density.

 **********************************************************************

 Orbital symmetries:
       Occupied  (A) (A) (A) (A) (A) (A) (A) (A) (A) (A) (A) (A)
                 (A) (A) (A) (A) (A) (A) (A) (A) (A) (A) (A) (A)
                 (A) (A) (A) (A) (A) (A) (A) (A) (A) (A) (A) (A)
                 (A) (A) (A) (A) (A) (A) (A)
       Virtual   (A) (A) (A) (A) (A) (A) (A) (A) (A) (A) (A) (A)
                 (A) (A) (A) (A) (A) (A) (A) (A) (A) (A) (A) (A)
                 (A) (A) (A) (A) (A) (A) (A) (A) (A) (A) (A) (A)
                 (A) (A) (A) (A) (A) (A) (A) (A) (A) (A) (A) (A)
                 (A) (A) (A) (A) (A) (A) (A) (A) (A) (A) (A) (A)
                 (A) (A) (A) (A) (A) (A) (A) (A) (A) (A) (A) (A)
                 (A) (A) (A) (A) (A) (A) (A) (A) (A) (A) (A) (A)
                 (A) (A) (A) (A) (A) (A) (A) (A) (A) (A) (A) (A)
                 (A) (A) (A) (A) (A) (A) (A) (A) (A) (A) (A) (A)
                 (A) (A) (A) (A) (A) (A) (A) (A) (A) (A) (A) (A)
                 (A) (A) (A) (A) (A) (A) (A) (A) (A) (A) (A) (A)
                 (A) (A) (A) (A) (A) (A) (A) (A) (A) (A) (A) (A)
                 (A) (A) (A) (A) (A) (A) (A) (A) (A) (A) (A) (A)
                 (A) (A) (A) (A) (A) (A) (A) (A) (A) (A) (A) (A)
                 (A) (A) (A) (A) (A) (A) (A) (A) (A) (A) (A) (A)
                 (A) (A) (A) (A) (A) (A) (A) (A) (A) (A) (A) (A)
                 (A) (A) (A) (A) (A) (A) (A) (A) (A) (A) (A) (A)
                 (A) (A) (A) (A) (A) (A) (A) (A) (A) (A) (A) (A)
 The electronic state is 1-A.
 Alpha  occ. eigenvalues --  -19.27769 -19.27017 -19.26968 -19.26641 -19.25863
 Alpha  occ. eigenvalues --  -10.35859 -10.31948 -10.31562 -10.31379 -10.31197
 Alpha  occ. eigenvalues --  -10.30135  -1.14160  -1.08979  -1.07077  -1.05385
 Alpha  occ. eigenvalues --   -1.03941  -0.81726  -0.81146  -0.70776  -0.68442
 Alpha  occ. eigenvalues --   -0.64400  -0.59957  -0.57615  -0.56217  -0.54575
 Alpha  occ. eigenvalues --   -0.52156  -0.50679  -0.48603  -0.47837  -0.46686
 Alpha  occ. eigenvalues --   -0.45027  -0.42953  -0.42260  -0.39669  -0.38184
 Alpha  occ. eigenvalues --   -0.37807  -0.36847  -0.36240  -0.33563  -0.31784
 Alpha  occ. eigenvalues --   -0.30525  -0.29565  -0.27483
 Alpha virt. eigenvalues --    0.00560   0.01156   0.01918   0.02683   0.04128
 Alpha virt. eigenvalues --    0.04478   0.04782   0.05459   0.05815   0.08104
 Alpha virt. eigenvalues --    0.08435   0.09338   0.09602   0.10458   0.11432
 Alpha virt. eigenvalues --    0.12314   0.12600   0.13222   0.14039   0.14623
 Alpha virt. eigenvalues --    0.15144   0.15294   0.15954   0.16544   0.17146
 Alpha virt. eigenvalues --    0.18220   0.19029   0.19869   0.19895   0.20894
 Alpha virt. eigenvalues --    0.21690   0.22151   0.22722   0.23510   0.24551
 Alpha virt. eigenvalues --    0.24989   0.25286   0.26005   0.27048   0.27666
 Alpha virt. eigenvalues --    0.27948   0.29004   0.29613   0.29782   0.31279
 Alpha virt. eigenvalues --    0.31694   0.31863   0.32318   0.32867   0.33403
 Alpha virt. eigenvalues --    0.34578   0.35848   0.35907   0.36942   0.37496
 Alpha virt. eigenvalues --    0.38173   0.38460   0.39437   0.40087   0.41030
 Alpha virt. eigenvalues --    0.41605   0.42871   0.43722   0.44511   0.45680
 Alpha virt. eigenvalues --    0.46351   0.65345   0.67444   0.67653   0.70229
 Alpha virt. eigenvalues --    0.73145   0.75140   0.75643   0.76676   0.77775
 Alpha virt. eigenvalues --    0.79595   0.80511   0.81844   0.83697   0.84545
 Alpha virt. eigenvalues --    0.86078   0.90737   0.93473   0.95533   0.98918
 Alpha virt. eigenvalues --    1.00652   1.02767   1.04283   1.05565   1.07195
 Alpha virt. eigenvalues --    1.08710   1.09713   1.10262   1.11224   1.14174
 Alpha virt. eigenvalues --    1.18890   1.22192   1.23962   1.26726   1.27078
 Alpha virt. eigenvalues --    1.29764   1.30589   1.31474   1.33491   1.34370
 Alpha virt. eigenvalues --    1.35625   1.35953   1.37835   1.39596   1.40564
 Alpha virt. eigenvalues --    1.42443   1.46224   1.47796   1.48661   1.49764
 Alpha virt. eigenvalues --    1.53103   1.54813   1.56455   1.58366   1.60962
 Alpha virt. eigenvalues --    1.63836   1.64899   1.66464   1.68538   1.70066
 Alpha virt. eigenvalues --    1.73694   1.74554   1.75090   1.77135   1.78184
 Alpha virt. eigenvalues --    1.81881   1.82539   1.83708   1.86749   1.86793
 Alpha virt. eigenvalues --    1.89189   1.93138   1.95056   1.97066   1.98066
 Alpha virt. eigenvalues --    2.01472   2.02026   2.03081   2.05865   2.07199
 Alpha virt. eigenvalues --    2.09276   2.11772   2.13099   2.16912   2.19825
 Alpha virt. eigenvalues --    2.20434   2.21631   2.24174   2.27106   2.30200
 Alpha virt. eigenvalues --    2.34230   2.34843   2.39797   2.42594   2.43964
 Alpha virt. eigenvalues --    2.44876   2.48348   2.49461   2.52008   2.52762
 Alpha virt. eigenvalues --    2.53885   2.57587   2.59445   2.62812   2.63421
 Alpha virt. eigenvalues --    2.65616   2.66580   2.67988   2.68793   2.70364
 Alpha virt. eigenvalues --    2.71308   2.76409   2.77283   2.79404   2.80906
 Alpha virt. eigenvalues --    2.81955   2.84912   2.87793   2.88987   2.92378
 Alpha virt. eigenvalues --    2.95194   2.96801   2.97209   3.00610   3.03461
 Alpha virt. eigenvalues --    3.07893   3.09094   3.11316   3.13235   3.28941
 Alpha virt. eigenvalues --    3.36594   3.40991   3.41227   3.44856   3.49741
 Alpha virt. eigenvalues --    3.52513   3.53121   3.54283   3.58507   3.59970
 Alpha virt. eigenvalues --    4.30890   4.35973   4.41249   4.46444   4.52332
 Alpha virt. eigenvalues --    4.59692   4.62161   4.76644   4.80544   4.98827
 Alpha virt. eigenvalues --    5.04807
          Condensed to atoms (all electrons):
              1          2          3          4          5          6
     1  C    5.542820  -0.019207  -0.268879   0.085059   0.073359  -0.281290
     2  C   -0.019207   6.395673  -0.346162  -0.149059  -0.019849  -0.085983
     3  C   -0.268879  -0.346162   6.387076  -0.141211  -0.646068   0.198568
     4  C    0.085059  -0.149059  -0.141211   5.940289   0.085707   0.000830
     5  C    0.073359  -0.019849  -0.646068   0.085707   6.565885  -0.461536
     6  C   -0.281290  -0.085983   0.198568   0.000830  -0.461536   6.237188
     7  O   -0.041689   0.135748   0.308137  -0.040382  -0.077785  -0.166770
     8  O    0.174994  -0.136642   0.311701   0.001734  -0.125884   0.048055
     9  O    0.034640  -0.189201  -0.053452  -0.067320   0.103672   0.210265
    10  O    0.002003   0.039522   0.034534   0.187060  -0.055988  -0.140527
    11  O   -0.003164  -0.000002  -0.117741  -0.098736   0.227957   0.067388
    12  H    0.483336  -0.141365   0.021607   0.004103  -0.001817   0.003339
    13  H    0.366716  -0.006906  -0.022055  -0.004967   0.010155   0.036555
    14  H    0.003526   0.312646   0.004395   0.014172   0.000274   0.008678
    15  H    0.011843   0.020125   0.359797   0.009202  -0.028735   0.004810
    16  H    0.004881  -0.017649   0.011156   0.330772  -0.005655  -0.035612
    17  H    0.019004  -0.011013  -0.045447  -0.105727   0.448285  -0.003111
    18  H   -0.002634   0.041652   0.000932  -0.046094  -0.016889   0.012245
    19  H   -0.000629  -0.008201   0.016420   0.048363  -0.082747   0.030865
    20  H    0.001574  -0.000010  -0.040551   0.014461   0.043043  -0.008726
    21  H    0.018052  -0.044462  -0.022047   0.031282   0.055383   0.277170
              7          8          9         10         11         12
     1  C   -0.041689   0.174994   0.034640   0.002003  -0.003164   0.483336
     2  C    0.135748  -0.136642  -0.189201   0.039522  -0.000002  -0.141365
     3  C    0.308137   0.311701  -0.053452   0.034534  -0.117741   0.021607
     4  C   -0.040382   0.001734  -0.067320   0.187060  -0.098736   0.004103
     5  C   -0.077785  -0.125884   0.103672  -0.055988   0.227957  -0.001817
     6  C   -0.166770   0.048055   0.210265  -0.140527   0.067388   0.003339
     7  O    8.313654  -0.068808   0.017869   0.001456   0.007058   0.012699
     8  O   -0.068808   8.310623   0.001348  -0.003148   0.003578  -0.048303
     9  O    0.017869   0.001348   8.317970  -0.018428  -0.003499  -0.003579
    10  O    0.001456  -0.003148  -0.018428   8.323202  -0.017390   0.000076
    11  O    0.007058   0.003578  -0.003499  -0.017390   8.287490   0.000019
    12  H    0.012699  -0.048303  -0.003579   0.000076   0.000019   0.512031
    13  H   -0.007340  -0.048332  -0.000702  -0.000029   0.000025  -0.038067
    14  H   -0.037793   0.007873   0.005749  -0.000344   0.000135   0.002254
    15  H   -0.046820  -0.042582   0.000345  -0.000620  -0.000693  -0.000254
    16  H    0.008584  -0.000609   0.007435  -0.036480  -0.001843  -0.000001
    17  H    0.012471  -0.006953   0.006439   0.004680  -0.045488  -0.000019
    18  H   -0.000536  -0.001398   0.238343   0.026836  -0.000015   0.000448
    19  H   -0.000069   0.000096  -0.000581   0.235325   0.016681   0.000001
    20  H   -0.000535   0.000394   0.000242   0.000444   0.240002  -0.000001
    21  H    0.006323  -0.000861  -0.042150   0.000314  -0.001010  -0.000007
             13         14         15         16         17         18
     1  C    0.366716   0.003526   0.011843   0.004881   0.019004  -0.002634
     2  C   -0.006906   0.312646   0.020125  -0.017649  -0.011013   0.041652
     3  C   -0.022055   0.004395   0.359797   0.011156  -0.045447   0.000932
     4  C   -0.004967   0.014172   0.009202   0.330772  -0.105727  -0.046094
     5  C    0.010155   0.000274  -0.028735  -0.005655   0.448285  -0.016889
     6  C    0.036555   0.008678   0.004810  -0.035612  -0.003111   0.012245
     7  O   -0.007340  -0.037793  -0.046820   0.008584   0.012471  -0.000536
     8  O   -0.048332   0.007873  -0.042582  -0.000609  -0.006953  -0.001398
     9  O   -0.000702   0.005749   0.000345   0.007435   0.006439   0.238343
    10  O   -0.000029  -0.000344  -0.000620  -0.036480   0.004680   0.026836
    11  O    0.000025   0.000135  -0.000693  -0.001843  -0.045488  -0.000015
    12  H   -0.038067   0.002254  -0.000254  -0.000001  -0.000019   0.000448
    13  H    0.546656  -0.003705   0.000403  -0.000001  -0.000050  -0.000012
    14  H   -0.003705   0.493660  -0.000010  -0.000015   0.000027  -0.000232
    15  H    0.000403  -0.000010   0.525367  -0.000234   0.000829  -0.000007
    16  H   -0.000001  -0.000015  -0.000234   0.547900   0.004353   0.000580
    17  H   -0.000050   0.000027   0.000829   0.004353   0.529415   0.000029
    18  H   -0.000012  -0.000232  -0.000007   0.000580   0.000029   0.353961
    19  H    0.000000   0.000003  -0.000007  -0.003705  -0.001260  -0.000888
    20  H    0.000000   0.000000   0.001779   0.000208  -0.006106  -0.000001
    21  H   -0.000071  -0.006737   0.000004  -0.004605  -0.000082  -0.001805
             19         20         21
     1  C   -0.000629   0.001574   0.018052
     2  C   -0.008201  -0.000010  -0.044462
     3  C    0.016420  -0.040551  -0.022047
     4  C    0.048363   0.014461   0.031282
     5  C   -0.082747   0.043043   0.055383
     6  C    0.030865  -0.008726   0.277170
     7  O   -0.000069  -0.000535   0.006323
     8  O    0.000096   0.000394  -0.000861
     9  O   -0.000581   0.000242  -0.042150
    10  O    0.235325   0.000444   0.000314
    11  O    0.016681   0.240002  -0.001010
    12  H    0.000001  -0.000001  -0.000007
    13  H    0.000000   0.000000  -0.000071
    14  H    0.000003   0.000000  -0.006737
    15  H   -0.000007   0.001779   0.000004
    16  H   -0.003705   0.000208  -0.004605
    17  H   -0.001260  -0.006106  -0.000082
    18  H   -0.000888  -0.000001  -0.001805
    19  H    0.359001  -0.001054  -0.000210
    20  H   -0.001054   0.359373   0.000005
    21  H   -0.000210   0.000005   0.567057
 Mulliken atomic charges:
              1
     1  C   -0.204316
     2  C    0.230344
     3  C    0.049291
     4  C   -0.099539
     5  C   -0.090768
     6  C    0.047600
     7  O   -0.335471
     8  O   -0.376876
     9  O   -0.565407
    10  O   -0.582498
    11  O   -0.560753
    12  H    0.193499
    13  H    0.171727
    14  H    0.195446
    15  H    0.185460
    16  H    0.190540
    17  H    0.199726
    18  H    0.395485
    19  H    0.392597
    20  H    0.395459
    21  H    0.168456
 Sum of Mulliken atomic charges =   0.00000
 Mulliken charges with hydrogens summed into heavy atoms:
              1
     1  C    0.160910
     2  C    0.425789
     3  C    0.234750
     4  C    0.091001
     5  C    0.108959
     6  C    0.216056
     7  O   -0.335471
     8  O   -0.376876
     9  O   -0.169922
    10  O   -0.189902
    11  O   -0.165294
 Sum of Mulliken charges with hydrogens summed into heavy atoms =   0.00000
 Electronic spatial extent (au):  <R**2>=           1443.0764
 Charge=              0.0000 electrons
 Dipole moment (field-independent basis, Debye):
    X=              0.9824    Y=             -0.8017    Z=             -0.5401  Tot=              1.3782
 Quadrupole moment (field-independent basis, Debye-Ang):
   XX=            -61.3416   YY=            -64.3108   ZZ=            -66.1190
   XY=             -5.5523   XZ=             -6.6265   YZ=              6.2646
 Traceless Quadrupole moment (field-independent basis, Debye-Ang):
   XX=              2.5822   YY=             -0.3870   ZZ=             -2.1952
   XY=             -5.5523   XZ=             -6.6265   YZ=              6.2646
 Octapole moment (field-independent basis, Debye-Ang**2):
  XXX=              4.3469  YYY=            -29.6139  ZZZ=             -3.8504  XYY=              9.6507
  XXY=              3.0383  XXZ=             -8.1362  XZZ=             11.1106  YZZ=              6.2365
  YYZ=             -6.5513  XYZ=              4.3269
 Hexadecapole moment (field-independent basis, Debye-Ang**3):
 XXXX=           -781.1763 YYYY=           -613.2652 ZZZZ=           -256.5660 XXXY=            -28.9246
 XXXZ=            -33.5337 YYYX=            -12.4373 YYYZ=             26.7812 ZZZX=             -9.2093
 ZZZY=              4.5434 XXYY=           -263.9952 XXZZ=           -182.5389 YYZZ=           -144.3505
 XXYZ=              7.7267 YYXZ=            -35.1045 ZZXY=            -14.2060
 N-N= 7.254512765665D+02 E-N=-2.881021653915D+03  KE= 6.052137237754D+02
 1\1\GINC-COMPUTE-8-6\SP\RmPW1PW91\6-31+G(d,p)\C6H10O5\MMARCARINO.IQUIR
 \12-Apr-2019\0\\# mpw1pw91/6-31+g** nmr scrf=(pcm,solvent=water)\\comm
 ent\\0,1\C,0,-2.139786,0.215106,-0.49993\C,0,-1.341973,0.561627,0.7631
 09\C,0,-0.566231,-1.38007,0.027365\C,0,1.160297,0.386768,0.454695\C,0,
 0.848522,-0.869289,-0.360037\C,0,-0.029314,1.362203,0.496742\O,0,-0.99
 8623,-0.762299,1.229317\O,0,-1.51225,-0.994759,-0.9671\O,0,-0.123155,2
 .080657,-0.727827\O,0,2.268199,1.106334,-0.080923\O,0,1.889604,-1.7971
 42,-0.054327\H,0,-2.082829,0.981708,-1.272326\H,0,-3.186215,0.008131,-
 0.249043\H,0,-1.950165,1.033314,1.535037\H,0,-0.582927,-2.46525,0.1631
 09\H,0,1.377831,0.059019,1.478957\H,0,0.846688,-0.627827,-1.429482\H,0
 ,0.801422,2.246764,-0.990382\H,0,2.951664,0.44807,-0.292606\H,0,1.9097
 36,-2.471033,-0.75244\H,0,0.135499,2.06672,1.324396\\Version=EM64L-G09
 RevC.01\State=1-A\HF=-610.6435666\RMSD=4.786e-09\Dipole=0.3864947,-0.3
 153987,-0.2125112\Quadrupole=1.9198162,-0.2877417,-1.6320745,-4.127987
 3,-4.9266239,4.6575849\PG=C01 [X(C6H10O5)]\\@


 Sacred cows make the best hamburger.
                               -- Mark Twain
 Job cpu time:  0 days  0 hours 16 minutes 56.8 seconds.
 File lengths (MBytes):  RWF=     82 Int=      0 D2E=      0 Chk=      5 Scr=      1
 Normal termination of Gaussian 09 at Fri Apr 12 10:30:54 2019.
