 Entering Gaussian System, Link 0=g09
 Input=/home/mmarcarino.iquir/NMR/02_RSS_Levo17_OPTB_nmr.gjc
 Output=/home/mmarcarino.iquir/NMR/02_RSS_Levo17_OPTB_nmr.log
 Initial command:
 /share/apps/Gaussian09/EM64T.SSE4.2-enabled/g09/l1.exe /tmp/Gau-2009.inp -scrdir=/tmp/
 Entering Link 1 = /share/apps/Gaussian09/EM64T.SSE4.2-enabled/g09/l1.exe PID=      2010.
  
 Copyright (c) 1988,1990,1992,1993,1995,1998,2003,2009,2011,
            Gaussian, Inc.  All Rights Reserved.
  
 This is part of the Gaussian(R) 09 program.  It is based on
 the Gaussian(R) 03 system (copyright 2003, Gaussian, Inc.),
 the Gaussian(R) 98 system (copyright 1998, Gaussian, Inc.),
 the Gaussian(R) 94 system (copyright 1995, Gaussian, Inc.),
 the Gaussian 92(TM) system (copyright 1992, Gaussian, Inc.),
 the Gaussian 90(TM) system (copyright 1990, Gaussian, Inc.),
 the Gaussian 88(TM) system (copyright 1988, Gaussian, Inc.),
 the Gaussian 86(TM) system (copyright 1986, Carnegie Mellon
 University), and the Gaussian 82(TM) system (copyright 1983,
 Carnegie Mellon University). Gaussian is a federally registered
 trademark of Gaussian, Inc.
  
 This software contains proprietary and confidential information,
 including trade secrets, belonging to Gaussian, Inc.
  
 This software is provided under written license and may be
 used, copied, transmitted, or stored only in accord with that
 written license.
  
 The following legend is applicable only to US Government
 contracts under FAR:
  
                    RESTRICTED RIGHTS LEGEND
  
 Use, reproduction and disclosure by the US Government is
 subject to restrictions as set forth in subparagraphs (a)
 and (c) of the Commercial Computer Software - Restricted
 Rights clause in FAR 52.227-19.
  
 Gaussian, Inc.
 340 Quinnipiac St., Bldg. 40, Wallingford CT 06492
  
  
 ---------------------------------------------------------------
 Warning -- This program may not be used in any manner that
 competes with the business of Gaussian, Inc. or will provide
 assistance to any competitor of Gaussian, Inc.  The licensee
 of this program is prohibited from giving any competitor of
 Gaussian, Inc. access to this program.  By using this program,
 the user acknowledges that Gaussian, Inc. is engaged in the
 business of creating and licensing software in the field of
 computational chemistry and represents and warrants to the
 licensee that it is not a competitor of Gaussian, Inc. and that
 it will not use this program in any manner prohibited above.
 ---------------------------------------------------------------
  

 Cite this work as:
 Gaussian 09, Revision C.01,
 M. J. Frisch, G. W. Trucks, H. B. Schlegel, G. E. Scuseria, 
 M. A. Robb, J. R. Cheeseman, G. Scalmani, V. Barone, B. Mennucci, 
 G. A. Petersson, H. Nakatsuji, M. Caricato, X. Li, H. P. Hratchian, 
 A. F. Izmaylov, J. Bloino, G. Zheng, J. L. Sonnenberg, M. Hada, 
 M. Ehara, K. Toyota, R. Fukuda, J. Hasegawa, M. Ishida, T. Nakajima, 
 Y. Honda, O. Kitao, H. Nakai, T. Vreven, J. A. Montgomery, Jr., 
 J. E. Peralta, F. Ogliaro, M. Bearpark, J. J. Heyd, E. Brothers, 
 K. N. Kudin, V. N. Staroverov, T. Keith, R. Kobayashi, J. Normand, 
 K. Raghavachari, A. Rendell, J. C. Burant, S. S. Iyengar, J. Tomasi, 
 M. Cossi, N. Rega, J. M. Millam, M. Klene, J. E. Knox, J. B. Cross, 
 V. Bakken, C. Adamo, J. Jaramillo, R. Gomperts, R. E. Stratmann, 
 O. Yazyev, A. J. Austin, R. Cammi, C. Pomelli, J. W. Ochterski, 
 R. L. Martin, K. Morokuma, V. G. Zakrzewski, G. A. Voth, 
 P. Salvador, J. J. Dannenberg, S. Dapprich, A. D. Daniels, 
 O. Farkas, J. B. Foresman, J. V. Ortiz, J. Cioslowski, 
 and D. J. Fox, Gaussian, Inc., Wallingford CT, 2010.
 
 ******************************************
 Gaussian 09:  EM64L-G09RevC.01 23-Sep-2011
                12-Apr-2019 
 ******************************************
 %nprocshared=4
 Will use up to    4 processors via shared memory.
 ------------------------------------------------
 # mpw1pw91/6-31+g** nmr scrf=(pcm,solvent=water)
 ------------------------------------------------
 1/38=1/1;
 2/12=2,17=6,18=5,40=1/2;
 3/5=1,6=6,7=111,11=2,16=1,25=1,30=1,70=2201,72=1,74=-7/1,2,8,3;
 4//1;
 5/5=2,38=5,53=1/2;
 8/6=1,10=90,11=11/1;
 10/13=100,45=16/2;
 6/7=2,8=2,9=2,10=2,28=1/1;
 99/9=1/99;
 -------
 comment
 -------
 Charge =  0 Multiplicity = 1
 Symbolic Z-Matrix:
 6                    -0.68471   1.7233    0.58044 
 6                    -0.60523   1.07258  -0.8074 
 6                     1.35595   0.74648   0.17222 
 6                    -0.22381  -1.25636   0.17411 
 6                     1.24378  -0.77742   0.33406 
 6                    -1.00796  -0.41494  -0.86265 
 8                     0.8098    1.14405  -1.07138 
 8                     0.59349   1.41235   1.17115 
 8                    -2.40394  -0.59514  -0.69701 
 8                    -0.95445  -1.15179   1.40468 
 8                     2.08018  -1.34046  -0.67321 
 1                    -1.4877    1.32132   1.20163 
 1                    -0.78822   2.81142   0.5055 
 1                    -1.13138   1.63779  -1.5792 
 1                     2.39882   1.07206   0.21579 
 1                    -0.21162  -2.30346  -0.1549 
 1                     1.59178  -1.05084   1.33998 
 1                    -2.51662  -0.80232   0.2507 
 1                    -0.79293  -1.9521    1.9274 
 1                     2.20664  -2.27911  -0.46193 
 1                    -0.73747  -0.76878  -1.86342 
 
                          Input orientation:                          
 ---------------------------------------------------------------------
 Center     Atomic      Atomic             Coordinates (Angstroms)
 Number     Number       Type             X           Y           Z
 ---------------------------------------------------------------------
      1          6           0       -0.684714    1.723302    0.580444
      2          6           0       -0.605233    1.072580   -0.807404
      3          6           0        1.355945    0.746480    0.172218
      4          6           0       -0.223805   -1.256357    0.174109
      5          6           0        1.243778   -0.777423    0.334058
      6          6           0       -1.007963   -0.414935   -0.862653
      7          8           0        0.809803    1.144048   -1.071380
      8          8           0        0.593487    1.412353    1.171154
      9          8           0       -2.403943   -0.595142   -0.697010
     10          8           0       -0.954445   -1.151787    1.404675
     11          8           0        2.080177   -1.340455   -0.673212
     12          1           0       -1.487703    1.321320    1.201627
     13          1           0       -0.788215    2.811423    0.505503
     14          1           0       -1.131376    1.637792   -1.579203
     15          1           0        2.398824    1.072062    0.215789
     16          1           0       -0.211618   -2.303457   -0.154895
     17          1           0        1.591782   -1.050839    1.339978
     18          1           0       -2.516616   -0.802318    0.250699
     19          1           0       -0.792929   -1.952103    1.927400
     20          1           0        2.206642   -2.279110   -0.461929
     21          1           0       -0.737474   -0.768783   -1.863420
 ---------------------------------------------------------------------
                    Distance matrix (angstroms):
                    1          2          3          4          5
     1  C    0.000000
     2  C    1.534887   0.000000
     3  C    2.298939   2.216353   0.000000
     4  C    3.042353   2.555935   2.550876   0.000000
     5  C    3.167556   2.853820   1.536572   1.552018   0.000000
     6  C    2.599822   1.542059   2.829824   1.548474   2.575627
     7  O    2.301660   1.441221   1.415227   2.895088   2.419843
     8  O    1.442021   2.338176   1.422182   2.963795   2.432843
     9  O    3.156393   2.455370   4.085617   2.439069   3.795023
    10  O    3.003040   3.156430   3.234234   1.434943   2.473571
    11  O    4.313106   3.612779   2.365283   2.456290   1.425188
    12  H    1.091902   2.208355   3.078386   3.049205   3.552237
    13  H    1.095598   2.186500   2.995412   4.120099   4.127736
    14  H    2.207010   1.091771   3.169965   3.503411   3.890397
    15  H    3.172585   3.173528   1.093389   3.507343   2.183738
    16  H    4.120598   3.460972   3.444760   1.097639   2.164725
    17  H    3.668131   3.734573   2.156302   2.167451   1.098971
    18  H    3.137412   2.878925   4.171530   2.338589   3.761400
    19  H    3.915942   4.082045   3.870488   1.970278   2.840209
    20  H    5.046363   4.388601   3.206247   2.712497   1.953399
    21  H    3.490808   2.126799   3.289718   2.157107   2.958774
                    6          7          8          9         10
     6  C    0.000000
     7  O    2.403803   0.000000
     8  O    3.168595   2.268863   0.000000
     9  O    1.417276   3.673295   4.062593   0.000000
    10  O    2.384657   3.809761   3.004237   2.613040   0.000000
    11  O    3.229409   2.818713   3.631788   4.545700   3.682681
    12  H    2.739705   3.236745   2.083403   2.849060   2.538080
    13  H    3.511342   2.796491   2.075955   3.957436   4.067330
    14  H    2.177697   2.066360   3.254295   2.717294   4.088592
    15  H    3.870452   2.046210   2.070691   5.165205   4.195637
    16  H    2.168318   3.710598   4.026642   2.831699   2.076149
    17  H    3.466213   3.353158   2.663158   4.508081   2.549048
    18  H    1.914589   4.074469   3.927435   0.976611   1.973364
    19  H    3.192729   4.598650   3.716668   3.365150   0.969451
    20  H    3.737568   3.747079   4.346968   4.914113   3.840252
    21  H    1.095403   2.584631   3.967046   2.041515   3.297607
                   11         12         13         14         15
    11  O    0.000000
    12  H    4.830097   0.000000
    13  H    5.182194   1.787255   0.000000
    14  H    4.472678   2.821372   2.416851   0.000000
    15  H    2.590771   4.017350   3.642325   4.000545   0.000000
    16  H    2.539360   4.075237   5.189469   4.290461   4.283216
    17  H    2.091732   3.889667   4.612787   4.813101   2.534132
    18  H    4.719503   2.544163   4.013903   3.349861   5.260805
    19  H    3.923268   3.424143   4.971216   5.029727   4.718313
    20  H    0.970416   5.420212   5.984866   5.266193   3.424411
    21  H    3.111681   3.784955   4.293279   2.455105   4.189055
                   16         17         18         19         20
    16  H    0.000000
    17  H    2.656304   0.000000
    18  H    2.780457   4.257608   0.000000
    19  H    2.190280   2.616140   2.665413   0.000000
    20  H    2.437795   2.265739   4.999792   3.848799   0.000000
    21  H    2.356015   3.970736   2.763326   3.971604   3.593478
                   21
    21  H    0.000000
 Stoichiometry    C6H10O5
 Framework group  C1[X(C6H10O5)]
 Deg. of freedom    57
 Full point group                 C1      NOp   1
 Largest Abelian subgroup         C1      NOp   1
 Largest concise Abelian subgroup C1      NOp   1
                         Standard orientation:                         
 ---------------------------------------------------------------------
 Center     Atomic      Atomic             Coordinates (Angstroms)
 Number     Number       Type             X           Y           Z
 ---------------------------------------------------------------------
      1          6           0       -0.684713    1.723302    0.580444
      2          6           0       -0.605232    1.072580   -0.807404
      3          6           0        1.355946    0.746479    0.172218
      4          6           0       -0.223806   -1.256357    0.174109
      5          6           0        1.243777   -0.777424    0.334058
      6          6           0       -1.007963   -0.414934   -0.862653
      7          8           0        0.809804    1.144047   -1.071380
      8          8           0        0.593488    1.412353    1.171154
      9          8           0       -2.403943   -0.595140   -0.697010
     10          8           0       -0.954446   -1.151786    1.404675
     11          8           0        2.080176   -1.340457   -0.673212
     12          1           0       -1.487702    1.321321    1.201627
     13          1           0       -0.788213    2.811423    0.505503
     14          1           0       -1.131375    1.637793   -1.579203
     15          1           0        2.398825    1.072060    0.215789
     16          1           0       -0.211620   -2.303457   -0.154895
     17          1           0        1.591781   -1.050840    1.339978
     18          1           0       -2.516617   -0.802316    0.250699
     19          1           0       -0.792930   -1.952102    1.927400
     20          1           0        2.206640   -2.279112   -0.461929
     21          1           0       -0.737475   -0.768783   -1.863420
 ---------------------------------------------------------------------
 Rotational constants (GHZ):      1.4605365      1.2490426      1.0027140
 Standard basis: 6-31+G(d,p) (6D, 7F)
 There are   259 symmetry adapted basis functions of A   symmetry.
 Integral buffers will be    131072 words long.
 Raffenetti 2 integral format.
 Two-electron integral symmetry is turned on.
   259 basis functions,   422 primitive gaussians,   259 cartesian basis functions
    43 alpha electrons       43 beta electrons
       nuclear repulsion energy       731.4211834895 Hartrees.
 NAtoms=   21 NActive=   21 NUniq=   21 SFac= 1.00D+00 NAtFMM=   60 NAOKFM=F Big=F
 ------------------------------------------------------------------------------
 Polarizable Continuum Model (PCM)
 =================================
 Model                : PCM.
 Atomic radii         : UFF (Universal Force Field).
 Polarization charges : Total charges.
 Charge compensation  : None.
 Solution method      : Matrix inversion.
 Cavity type          : Scaled VdW (van der Waals Surface) (Alpha=1.100).
 Cavity algorithm     : GePol (No added spheres)
                        Default sphere list used, NSphG=   21.
                        Lebedev-Laikov grids with approx.  5.0 points / Ang**2.
                        Smoothing algorithm: Karplus/York (Gamma=1.0000).
                        Polarization charges: spherical gaussians, with
                                              point-specific exponents (IZeta= 3).
                        Self-potential: point-specific (ISelfS= 7).
                        Self-field    : sphere-specific E.n sum rule (ISelfD= 2).
 Solvent              : Water, Eps=  78.355300 Eps(inf)=   1.777849
 ------------------------------------------------------------------------------
 One-electron integrals computed using PRISM.
 NBasis=   259 RedAO= T  NBF=   259
 NBsUse=   259 1.00D-06 NBFU=   259
 Harris functional with IExCor=  908 diagonalized for initial guess.
 ExpMin= 4.38D-02 ExpMax= 5.48D+03 ExpMxC= 8.25D+02 IAcc=2 IRadAn=         4 AccDes= 0.00D+00
 HarFok:  IExCor=  908 AccDes= 0.00D+00 IRadAn=         4 IDoV= 1
 ScaDFX=  1.000000  1.000000  1.000000  1.000000
 FoFCou: FMM=F IPFlag=           0 FMFlag=      100000 FMFlg1=           0
         NFxFlg=           0 DoJE=T BraDBF=F KetDBF=T FulRan=T
         Omega=  0.000000  0.000000  1.000000  0.000000  0.000000 ICntrl=     500 IOpCl=  0
         NMat0=    1 NMatS0=    1 NMatT0=    0 NMatD0=    1 NMtDS0=    0 NMtDT0=    0
         I1Cent=           4 NGrid=           0.
 Petite list used in FoFCou.
 Initial guess orbital symmetries:
       Occupied  (A) (A) (A) (A) (A) (A) (A) (A) (A) (A) (A) (A)
                 (A) (A) (A) (A) (A) (A) (A) (A) (A) (A) (A) (A)
                 (A) (A) (A) (A) (A) (A) (A) (A) (A) (A) (A) (A)
                 (A) (A) (A) (A) (A) (A) (A)
       Virtual   (A) (A) (A) (A) (A) (A) (A) (A) (A) (A) (A) (A)
                 (A) (A) (A) (A) (A) (A) (A) (A) (A) (A) (A) (A)
                 (A) (A) (A) (A) (A) (A) (A) (A) (A) (A) (A) (A)
                 (A) (A) (A) (A) (A) (A) (A) (A) (A) (A) (A) (A)
                 (A) (A) (A) (A) (A) (A) (A) (A) (A) (A) (A) (A)
                 (A) (A) (A) (A) (A) (A) (A) (A) (A) (A) (A) (A)
                 (A) (A) (A) (A) (A) (A) (A) (A) (A) (A) (A) (A)
                 (A) (A) (A) (A) (A) (A) (A) (A) (A) (A) (A) (A)
                 (A) (A) (A) (A) (A) (A) (A) (A) (A) (A) (A) (A)
                 (A) (A) (A) (A) (A) (A) (A) (A) (A) (A) (A) (A)
                 (A) (A) (A) (A) (A) (A) (A) (A) (A) (A) (A) (A)
                 (A) (A) (A) (A) (A) (A) (A) (A) (A) (A) (A) (A)
                 (A) (A) (A) (A) (A) (A) (A) (A) (A) (A) (A) (A)
                 (A) (A) (A) (A) (A) (A) (A) (A) (A) (A) (A) (A)
                 (A) (A) (A) (A) (A) (A) (A) (A) (A) (A) (A) (A)
                 (A) (A) (A) (A) (A) (A) (A) (A) (A) (A) (A) (A)
                 (A) (A) (A) (A) (A) (A) (A) (A) (A) (A) (A) (A)
                 (A) (A) (A) (A) (A) (A) (A) (A) (A) (A) (A) (A)
 The electronic state of the initial guess is 1-A.
 Requested convergence on RMS density matrix=1.00D-08 within 128 cycles.
 Requested convergence on MAX density matrix=1.00D-06.
 Requested convergence on             energy=1.00D-06.
 No special actions if energy rises.
 Error on total polarization charges =  0.01154
 SCF Done:  E(RmPW1PW91) =  -610.647565170     A.U. after   12 cycles
             Convg  =    0.9542D-08             -V/T =  2.0090
 Range of M.O.s used for correlation:     1   259
 NBasis=   259 NAE=    43 NBE=    43 NFC=     0 NFV=     0
 NROrb=    259 NOA=    43 NOB=    43 NVA=   216 NVB=   216

 **** Warning!!: The largest alpha MO coefficient is  0.54116128D+02

 NEqPCM:  Using equilibrium solvation (IEInf=0, Eps=  78.3553, EpsInf=   1.7778)
          Differentiating once with respect to magnetic field using GIAOs.
          Electric field/nuclear overlap derivatives assumed to be zero.
 FoFCou: FMM=F IPFlag=           0 FMFlag=    10101102 FMFlg1=           0
         NFxFlg=    40000000 DoJE=F BraDBF=F KetDBF=T FulRan=T
         Omega=  0.000000  0.000000  1.000000  0.000000  0.000000 ICntrl=    6100 IOpCl=  0
         NMat0=    1 NMatS0=    1 NMatT0=    0 NMatD0=    1 NMtDS0=    0 NMtDT0=    0
         I1Cent=           7 NGrid=        1515.
 Symmetry not used in FoFCou.
          There are     3 degrees of freedom in the 1st order CPHF.  IDoFFX=0.
      3 vectors produced by pass  0 Test12= 3.10D-13 3.33D-08 XBig12= 1.98D+01 8.59D-01.
 AX will form     3 AO Fock derivatives at one time.
      3 vectors produced by pass  1 Test12= 3.10D-13 3.33D-08 XBig12= 4.44D-02 2.55D-02.
      3 vectors produced by pass  2 Test12= 3.10D-13 3.33D-08 XBig12= 8.64D-05 1.41D-03.
      3 vectors produced by pass  3 Test12= 3.10D-13 3.33D-08 XBig12= 4.09D-07 8.14D-05.
      3 vectors produced by pass  4 Test12= 3.10D-13 3.33D-08 XBig12= 1.45D-09 5.85D-06.
      3 vectors produced by pass  5 Test12= 3.10D-13 3.33D-08 XBig12= 4.09D-12 3.72D-07.
 Inverted reduced A of dimension    18 with in-core refinement.
 Calculating GIAO nuclear magnetic shielding tensors.
 SCF GIAO Magnetic shielding tensor (ppm):
      1  C    Isotropic =   131.8118   Anisotropy =    64.2813
   XX=   156.2000   YX=   -11.4906   ZX=    28.1749
   XY=   -18.6477   YY=   111.6786   ZY=    -0.4284
   XZ=    23.4889   YZ=    -4.5808   ZZ=   127.5568
   Eigenvalues:   104.6931   116.0763   174.6660
      2  C    Isotropic =   118.6700   Anisotropy =    58.3449
   XX=   155.3682   YX=     3.5312   ZX=   -11.5751
   XY=    12.5445   YY=    99.1665   ZY=    13.1300
   XZ=    -5.9866   YZ=     1.6944   ZZ=   101.4752
   Eigenvalues:    90.6575   107.7858   157.5666
      3  C    Isotropic =    92.9850   Anisotropy =    34.1085
   XX=    83.5797   YX=   -12.9544   ZX=   -10.4102
   XY=   -26.9044   YY=    86.3745   ZY=     8.4451
   XZ=    -0.6401   YZ=     4.5140   ZZ=   109.0008
   Eigenvalues:    64.9954    98.2356   115.7240
      4  C    Isotropic =   121.8970   Anisotropy =    44.9889
   XX=   128.5275   YX=    -3.0375   ZX=   -27.9373
   XY=     2.7255   YY=   101.9652   ZY=    10.9634
   XZ=    -8.9512   YZ=     9.4128   ZZ=   135.1983
   Eigenvalues:    98.0448   115.7565   151.8896
      5  C    Isotropic =   121.1280   Anisotropy =    36.6658
   XX=   123.6561   YX=    -6.6980   ZX=    -6.8400
   XY=    -6.1538   YY=   108.9803   ZY=    11.2130
   XZ=   -16.3723   YZ=    16.6903   ZZ=   130.7478
   Eigenvalues:   102.1411   115.6711   145.5719
      6  C    Isotropic =   129.9102   Anisotropy =    51.7946
   XX=   158.6106   YX=     8.8493   ZX=    -5.3409
   XY=    12.6520   YY=   122.7194   ZY=     4.5009
   XZ=   -21.6405   YZ=    -1.3614   ZZ=   108.4007
   Eigenvalues:   103.9936   121.2971   164.4400
      7  O    Isotropic =   237.5717   Anisotropy =    54.3055
   XX=   244.9591   YX=   -34.9626   ZX=     2.0209
   XY=   -32.9471   YY=   199.8573   ZY=     2.1943
   XZ=    -8.7881   YZ=    17.0931   ZZ=   267.8986
   Eigenvalues:   181.0942   257.8455   273.7753
      8  O    Isotropic =   264.8566   Anisotropy =   113.4033
   XX=   249.0994   YX=   -50.0697   ZX=    -7.3594
   XY=   -57.5976   YY=   212.0070   ZY=    29.5855
   XZ=    23.7011   YZ=    29.2771   ZZ=   333.4634
   Eigenvalues:   168.5885   285.5225   340.4588
      9  O    Isotropic =   309.6773   Anisotropy =    27.8823
   XX=   313.4929   YX=     8.4625   ZX=     3.4501
   XY=    23.6282   YY=   309.7196   ZY=   -21.0651
   XZ=    13.1322   YZ=    -5.8663   ZZ=   305.8194
   Eigenvalues:   284.1627   316.6037   328.2655
     10  O    Isotropic =   301.5881   Anisotropy =    41.4140
   XX=   281.6037   YX=    -8.6391   ZX=    19.0051
   XY=   -10.6586   YY=   302.8779   ZY=    -9.4586
   XZ=   -11.8693   YZ=   -18.1240   ZZ=   320.2828
   Eigenvalues:   277.8039   297.7629   329.1975
     11  O    Isotropic =   293.4282   Anisotropy =    64.9972
   XX=   283.7622   YX=    -3.8139   ZX=    -8.2917
   XY=   -16.3770   YY=   333.6868   ZY=    15.9841
   XZ=   -12.8261   YZ=    -1.8323   ZZ=   262.8356
   Eigenvalues:   258.3345   285.1904   336.7597
     12  H    Isotropic =    27.3434   Anisotropy =     4.9679
   XX=    29.5232   YX=    -0.3730   ZX=    -3.2255
   XY=    -0.2036   YY=    27.2005   ZY=     0.3774
   XZ=    -1.3405   YZ=     1.6341   ZZ=    25.3065
   Eigenvalues:    24.0935    27.2813    30.6553
     13  H    Isotropic =    27.8227   Anisotropy =    11.4012
   XX=    26.2512   YX=    -4.4113   ZX=     1.5282
   XY=    -4.0312   YY=    33.4653   ZY=     1.2059
   XZ=     1.6625   YZ=    -0.5771   ZZ=    23.7515
   Eigenvalues:    22.4175    25.6271    35.4235
     14  H    Isotropic =    27.2020   Anisotropy =     7.4112
   XX=    27.1619   YX=    -1.0966   ZX=     3.5254
   XY=    -1.5244   YY=    26.8165   ZY=    -3.4339
   XZ=     2.1696   YZ=    -2.6526   ZZ=    27.6277
   Eigenvalues:    23.7598    25.7035    32.1428
     15  H    Isotropic =    26.1170   Anisotropy =     7.5723
   XX=    30.7122   YX=     1.6289   ZX=     1.1715
   XY=     1.1822   YY=    24.1348   ZY=     0.8560
   XZ=     0.7534   YZ=     0.9142   ZZ=    23.5041
   Eigenvalues:    22.8798    24.3061    31.1652
     16  H    Isotropic =    27.6425   Anisotropy =     6.7887
   XX=    25.4926   YX=    -1.4705   ZX=    -2.2678
   XY=    -0.8985   YY=    30.5438   ZY=     1.4464
   XZ=    -2.4695   YZ=     2.7230   ZZ=    26.8910
   Eigenvalues:    23.7064    27.0528    32.1683
     17  H    Isotropic =    27.7432   Anisotropy =     4.6010
   XX=    27.7712   YX=    -2.6431   ZX=     0.8345
   XY=    -2.3409   YY=    25.5643   ZY=    -0.4153
   XZ=     0.8457   YZ=    -1.1677   ZZ=    29.8942
   Eigenvalues:    23.9350    28.4841    30.8105
     18  H    Isotropic =    27.8261   Anisotropy =    16.6958
   XX=    27.6243   YX=     1.6290   ZX=    -1.3910
   XY=     0.6569   YY=    18.7516   ZY=    -5.8503
   XZ=    -1.8603   YZ=    -5.2350   ZZ=    37.1024
   Eigenvalues:    17.1645    27.3572    38.9566
     19  H    Isotropic =    29.5285   Anisotropy =    21.2095
   XX=    22.6080   YX=    -1.8632   ZX=    -2.1094
   XY=    -1.3219   YY=    34.6933   ZY=   -10.5166
   XZ=    -0.7799   YZ=   -10.5609   ZZ=    31.2844
   Eigenvalues:    20.3216    24.5958    43.6682
     20  H    Isotropic =    29.8592   Anisotropy =    19.6409
   XX=    25.4065   YX=    -6.3287   ZX=    -2.4592
   XY=    -6.0156   YY=    40.7556   ZY=    -2.0742
   XZ=    -1.9116   YZ=    -0.8898   ZZ=    23.4155
   Eigenvalues:    20.7589    25.8656    42.9531
     21  H    Isotropic =    27.5332   Anisotropy =     5.4906
   XX=    27.2996   YX=     1.2007   ZX=    -1.3629
   XY=     0.6173   YY=    25.1723   ZY=     3.3255
   XZ=     0.3314   YZ=     1.7298   ZZ=    30.1277
   Eigenvalues:    23.8024    27.6037    31.1936
 End of Minotr Frequency-dependent properties file   721 does not exist.
 End of Minotr Frequency-dependent properties file   722 does not exist.

 **********************************************************************

            Population analysis using the SCF density.

 **********************************************************************

 Orbital symmetries:
       Occupied  (A) (A) (A) (A) (A) (A) (A) (A) (A) (A) (A) (A)
                 (A) (A) (A) (A) (A) (A) (A) (A) (A) (A) (A) (A)
                 (A) (A) (A) (A) (A) (A) (A) (A) (A) (A) (A) (A)
                 (A) (A) (A) (A) (A) (A) (A)
       Virtual   (A) (A) (A) (A) (A) (A) (A) (A) (A) (A) (A) (A)
                 (A) (A) (A) (A) (A) (A) (A) (A) (A) (A) (A) (A)
                 (A) (A) (A) (A) (A) (A) (A) (A) (A) (A) (A) (A)
                 (A) (A) (A) (A) (A) (A) (A) (A) (A) (A) (A) (A)
                 (A) (A) (A) (A) (A) (A) (A) (A) (A) (A) (A) (A)
                 (A) (A) (A) (A) (A) (A) (A) (A) (A) (A) (A) (A)
                 (A) (A) (A) (A) (A) (A) (A) (A) (A) (A) (A) (A)
                 (A) (A) (A) (A) (A) (A) (A) (A) (A) (A) (A) (A)
                 (A) (A) (A) (A) (A) (A) (A) (A) (A) (A) (A) (A)
                 (A) (A) (A) (A) (A) (A) (A) (A) (A) (A) (A) (A)
                 (A) (A) (A) (A) (A) (A) (A) (A) (A) (A) (A) (A)
                 (A) (A) (A) (A) (A) (A) (A) (A) (A) (A) (A) (A)
                 (A) (A) (A) (A) (A) (A) (A) (A) (A) (A) (A) (A)
                 (A) (A) (A) (A) (A) (A) (A) (A) (A) (A) (A) (A)
                 (A) (A) (A) (A) (A) (A) (A) (A) (A) (A) (A) (A)
                 (A) (A) (A) (A) (A) (A) (A) (A) (A) (A) (A) (A)
                 (A) (A) (A) (A) (A) (A) (A) (A) (A) (A) (A) (A)
                 (A) (A) (A) (A) (A) (A) (A) (A) (A) (A) (A) (A)
 The electronic state is 1-A.
 Alpha  occ. eigenvalues --  -19.27454 -19.27301 -19.26619 -19.26592 -19.25830
 Alpha  occ. eigenvalues --  -10.35710 -10.31949 -10.31402 -10.31254 -10.31190
 Alpha  occ. eigenvalues --  -10.30209  -1.14081  -1.08819  -1.07046  -1.05534
 Alpha  occ. eigenvalues --   -1.03768  -0.81757  -0.80749  -0.70612  -0.68535
 Alpha  occ. eigenvalues --   -0.64165  -0.61201  -0.57632  -0.55533  -0.54896
 Alpha  occ. eigenvalues --   -0.52060  -0.50030  -0.48422  -0.47200  -0.46552
 Alpha  occ. eigenvalues --   -0.44316  -0.43304  -0.42429  -0.40975  -0.37955
 Alpha  occ. eigenvalues --   -0.37575  -0.37331  -0.35260  -0.33499  -0.32829
 Alpha  occ. eigenvalues --   -0.30074  -0.28772  -0.27531
 Alpha virt. eigenvalues --    0.00258   0.01414   0.02081   0.02618   0.03798
 Alpha virt. eigenvalues --    0.04501   0.05268   0.05304   0.06080   0.08184
 Alpha virt. eigenvalues --    0.08926   0.09138   0.09787   0.10922   0.12058
 Alpha virt. eigenvalues --    0.12388   0.12452   0.13406   0.13649   0.14584
 Alpha virt. eigenvalues --    0.15029   0.15994   0.16626   0.17234   0.17649
 Alpha virt. eigenvalues --    0.18328   0.18964   0.19691   0.19984   0.20394
 Alpha virt. eigenvalues --    0.21960   0.22194   0.23180   0.24399   0.24715
 Alpha virt. eigenvalues --    0.25215   0.25358   0.25503   0.26384   0.27185
 Alpha virt. eigenvalues --    0.27656   0.28293   0.29472   0.29683   0.31105
 Alpha virt. eigenvalues --    0.31632   0.32021   0.32868   0.33305   0.34250
 Alpha virt. eigenvalues --    0.34829   0.35158   0.36166   0.36615   0.37858
 Alpha virt. eigenvalues --    0.38235   0.39049   0.39248   0.39838   0.40594
 Alpha virt. eigenvalues --    0.41942   0.42591   0.43808   0.46160   0.47033
 Alpha virt. eigenvalues --    0.50168   0.65234   0.65949   0.67752   0.69743
 Alpha virt. eigenvalues --    0.70350   0.72136   0.73784   0.76408   0.78404
 Alpha virt. eigenvalues --    0.80041   0.81602   0.83118   0.83965   0.84785
 Alpha virt. eigenvalues --    0.89803   0.92035   0.95919   0.98568   0.99767
 Alpha virt. eigenvalues --    1.02396   1.03326   1.04287   1.06251   1.07459
 Alpha virt. eigenvalues --    1.07985   1.10255   1.11748   1.13183   1.15084
 Alpha virt. eigenvalues --    1.17339   1.21053   1.23827   1.25317   1.26698
 Alpha virt. eigenvalues --    1.27253   1.28841   1.31606   1.32870   1.34425
 Alpha virt. eigenvalues --    1.36303   1.37501   1.39142   1.39718   1.40290
 Alpha virt. eigenvalues --    1.44136   1.46544   1.48010   1.49673   1.51887
 Alpha virt. eigenvalues --    1.52506   1.57378   1.59051   1.59271   1.60283
 Alpha virt. eigenvalues --    1.60893   1.62634   1.67402   1.68621   1.69365
 Alpha virt. eigenvalues --    1.70352   1.73037   1.75598   1.76566   1.79610
 Alpha virt. eigenvalues --    1.79842   1.84672   1.85559   1.88009   1.90138
 Alpha virt. eigenvalues --    1.90811   1.93832   1.96130   1.96835   1.99426
 Alpha virt. eigenvalues --    2.01370   2.04021   2.05926   2.07801   2.08237
 Alpha virt. eigenvalues --    2.09872   2.11346   2.13465   2.14502   2.17754
 Alpha virt. eigenvalues --    2.20748   2.21380   2.24730   2.27513   2.29426
 Alpha virt. eigenvalues --    2.32039   2.34574   2.37877   2.39257   2.43795
 Alpha virt. eigenvalues --    2.45123   2.48471   2.49442   2.51383   2.54038
 Alpha virt. eigenvalues --    2.55842   2.57038   2.60753   2.63535   2.65463
 Alpha virt. eigenvalues --    2.66052   2.67367   2.68623   2.69805   2.72768
 Alpha virt. eigenvalues --    2.72936   2.73827   2.75380   2.76186   2.81350
 Alpha virt. eigenvalues --    2.81686   2.83653   2.87458   2.89046   2.91208
 Alpha virt. eigenvalues --    2.92054   2.96149   2.98928   3.01365   3.03299
 Alpha virt. eigenvalues --    3.04508   3.08206   3.11022   3.15742   3.22263
 Alpha virt. eigenvalues --    3.36281   3.42974   3.46704   3.47346   3.49169
 Alpha virt. eigenvalues --    3.49999   3.53759   3.55894   3.57506   3.59326
 Alpha virt. eigenvalues --    4.29943   4.37001   4.42795   4.48337   4.50292
 Alpha virt. eigenvalues --    4.61110   4.62856   4.83696   4.89069   4.95413
 Alpha virt. eigenvalues --    5.03782
          Condensed to atoms (all electrons):
              1          2          3          4          5          6
     1  C    5.942279  -0.711320  -0.643462  -0.584199   0.547698   0.333874
     2  C   -0.711320   7.526768   0.144677   0.653572  -0.464963  -1.094680
     3  C   -0.643462   0.144677   6.688875   0.575607  -1.051941  -0.337805
     4  C   -0.584199   0.653572   0.575607   7.078464  -1.285362  -0.430688
     5  C    0.547698  -0.464963  -1.051941  -1.285362   7.492486   0.145994
     6  C    0.333874  -1.094680  -0.337805  -0.430688   0.145994   6.861095
     7  O    0.020744   0.043232   0.286697  -0.085312  -0.115634  -0.010317
     8  O    0.185495  -0.125961   0.373967   0.036372  -0.186090  -0.019660
     9  O    0.061863  -0.207134  -0.025539  -0.155875   0.065868   0.356562
    10  O    0.083516  -0.062428  -0.105045  -0.056483   0.173056  -0.077427
    11  O    0.009635  -0.024825  -0.140420  -0.070512   0.267648  -0.005177
    12  H    0.498888  -0.181277   0.011446  -0.029587   0.012655   0.033774
    13  H    0.364511   0.007282  -0.011150  -0.000297   0.005102   0.018732
    14  H    0.004512   0.283807   0.002911   0.003538   0.001997   0.038950
    15  H    0.002714   0.034576   0.338532   0.015311  -0.019026  -0.003900
    16  H   -0.006196   0.020838  -0.005617   0.320960   0.030718  -0.026936
    17  H    0.014936  -0.031886   0.008167  -0.006821   0.304077   0.030713
    18  H    0.017437  -0.021464  -0.011863  -0.072465   0.035831   0.017788
    19  H   -0.007844   0.003051   0.017494   0.089151  -0.083789   0.008616
    20  H   -0.000880   0.005282   0.015295  -0.020183   0.023734  -0.014093
    21  H    0.036402  -0.059326  -0.032272  -0.079956   0.047567   0.399593
              7          8          9         10         11         12
     1  C    0.020744   0.185495   0.061863   0.083516   0.009635   0.498888
     2  C    0.043232  -0.125961  -0.207134  -0.062428  -0.024825  -0.181277
     3  C    0.286697   0.373967  -0.025539  -0.105045  -0.140420   0.011446
     4  C   -0.085312   0.036372  -0.155875  -0.056483  -0.070512  -0.029587
     5  C   -0.115634  -0.186090   0.065868   0.173056   0.267648   0.012655
     6  C   -0.010317  -0.019660   0.356562  -0.077427  -0.005177   0.033774
     7  O    8.253118  -0.050257   0.011671   0.010698   0.020065   0.013390
     8  O   -0.050257   8.269602  -0.005129  -0.005860   0.007778  -0.043398
     9  O    0.011671  -0.005129   8.220909  -0.001319   0.000819   0.010019
    10  O    0.010698  -0.005860  -0.001319   8.448730   0.003639  -0.000968
    11  O    0.020065   0.007778   0.000819   0.003639   8.270089  -0.000052
    12  H    0.013390  -0.043398   0.010019  -0.000968  -0.000052   0.527086
    13  H   -0.003410  -0.052512  -0.002117   0.000543   0.000058  -0.038101
    14  H   -0.028611   0.006523   0.000092  -0.000933   0.000214   0.002814
    15  H   -0.046414  -0.042701  -0.000104  -0.000250   0.006572  -0.000241
    16  H   -0.001385   0.000656   0.005426  -0.038527  -0.006784  -0.000028
    17  H    0.009806  -0.005082  -0.000822  -0.003591  -0.034819   0.000036
    18  H    0.000058  -0.000421   0.258643   0.032314  -0.000126  -0.000657
    19  H   -0.000239  -0.000410  -0.001810   0.229720  -0.000047   0.000110
    20  H   -0.000667  -0.000233   0.000171  -0.000256   0.239985   0.000000
    21  H    0.005803  -0.001644  -0.046669   0.009496   0.001323   0.000161
             13         14         15         16         17         18
     1  C    0.364511   0.004512   0.002714  -0.006196   0.014936   0.017437
     2  C    0.007282   0.283807   0.034576   0.020838  -0.031886  -0.021464
     3  C   -0.011150   0.002911   0.338532  -0.005617   0.008167  -0.011863
     4  C   -0.000297   0.003538   0.015311   0.320960  -0.006821  -0.072465
     5  C    0.005102   0.001997  -0.019026   0.030718   0.304077   0.035831
     6  C    0.018732   0.038950  -0.003900  -0.026936   0.030713   0.017788
     7  O   -0.003410  -0.028611  -0.046414  -0.001385   0.009806   0.000058
     8  O   -0.052512   0.006523  -0.042701   0.000656  -0.005082  -0.000421
     9  O   -0.002117   0.000092  -0.000104   0.005426  -0.000822   0.258643
    10  O    0.000543  -0.000933  -0.000250  -0.038527  -0.003591   0.032314
    11  O    0.000058   0.000214   0.006572  -0.006784  -0.034819  -0.000126
    12  H   -0.038101   0.002814  -0.000241  -0.000028   0.000036  -0.000657
    13  H    0.541845  -0.003481   0.000309   0.000004  -0.000009   0.000007
    14  H   -0.003481   0.501448   0.000007  -0.000116   0.000019  -0.000108
    15  H    0.000309   0.000007   0.535569  -0.000144  -0.002700   0.000000
    16  H    0.000004  -0.000116  -0.000144   0.542376  -0.003210  -0.000225
    17  H   -0.000009   0.000019  -0.002700  -0.003210   0.544435  -0.000028
    18  H    0.000007  -0.000108   0.000000  -0.000225  -0.000028   0.350171
    19  H   -0.000002   0.000004   0.000003  -0.009300   0.001781  -0.001148
    20  H    0.000000   0.000000  -0.000237   0.003433  -0.007473  -0.000003
    21  H   -0.000141  -0.006277  -0.000038  -0.005016  -0.000144   0.005558
             19         20         21
     1  C   -0.007844  -0.000880   0.036402
     2  C    0.003051   0.005282  -0.059326
     3  C    0.017494   0.015295  -0.032272
     4  C    0.089151  -0.020183  -0.079956
     5  C   -0.083789   0.023734   0.047567
     6  C    0.008616  -0.014093   0.399593
     7  O   -0.000239  -0.000667   0.005803
     8  O   -0.000410  -0.000233  -0.001644
     9  O   -0.001810   0.000171  -0.046669
    10  O    0.229720  -0.000256   0.009496
    11  O   -0.000047   0.239985   0.001323
    12  H    0.000110   0.000000   0.000161
    13  H   -0.000002   0.000000  -0.000141
    14  H    0.000004   0.000000  -0.006277
    15  H    0.000003  -0.000237  -0.000038
    16  H   -0.009300   0.003433  -0.005016
    17  H    0.001781  -0.007473  -0.000144
    18  H   -0.001148  -0.000003   0.005558
    19  H    0.340739   0.000044  -0.000168
    20  H    0.000044   0.362165   0.000148
    21  H   -0.000168   0.000148   0.539281
 Mulliken atomic charges:
              1
     1  C   -0.170605
     2  C    0.262180
     3  C   -0.098554
     4  C    0.104764
     5  C    0.052375
     6  C   -0.225005
     7  O   -0.333036
     8  O   -0.341034
     9  O   -0.545527
    10  O   -0.638626
    11  O   -0.545063
    12  H    0.183930
    13  H    0.172827
    14  H    0.192687
    15  H    0.182165
    16  H    0.179072
    17  H    0.182617
    18  H    0.390700
    19  H    0.414042
    20  H    0.393770
    21  H    0.186320
 Sum of Mulliken atomic charges =   0.00000
 Mulliken charges with hydrogens summed into heavy atoms:
              1
     1  C    0.186152
     2  C    0.454867
     3  C    0.083611
     4  C    0.283836
     5  C    0.234992
     6  C   -0.038685
     7  O   -0.333036
     8  O   -0.341034
     9  O   -0.154827
    10  O   -0.224583
    11  O   -0.151293
 Sum of Mulliken charges with hydrogens summed into heavy atoms =   0.00000
 Electronic spatial extent (au):  <R**2>=           1383.5712
 Charge=              0.0000 electrons
 Dipole moment (field-independent basis, Debye):
    X=              0.1249    Y=             -4.1472    Z=              2.6409  Tot=              4.9182
 Quadrupole moment (field-independent basis, Debye-Ang):
   XX=            -70.1759   YY=            -52.3206   ZZ=            -68.2708
   XY=             -6.8406   XZ=              0.1300   YZ=             -6.7260
 Traceless Quadrupole moment (field-independent basis, Debye-Ang):
   XX=             -6.5868   YY=             11.2685   ZZ=             -4.6817
   XY=             -6.8406   XZ=              0.1300   YZ=             -6.7260
 Octapole moment (field-independent basis, Debye-Ang**2):
  XXX=             18.2320  YYY=            -35.9759  ZZZ=              4.7559  XYY=              3.1623
  XXY=             -1.6674  XXZ=             23.6780  XZZ=             -7.6336  YZZ=            -14.5738
  YYZ=              9.6446  XYZ=              3.4413
 Hexadecapole moment (field-independent basis, Debye-Ang**3):
 XXXX=           -772.4882 YYYY=           -519.2383 ZZZZ=           -347.3665 XXXY=             -7.9142
 XXXZ=            -29.9468 YYYX=            -48.7993 YYYZ=            -26.4265 ZZZX=             -2.0931
 ZZZY=            -32.1544 XXYY=           -193.0609 XXZZ=           -196.0340 YYZZ=           -147.1063
 XXYZ=            -14.8646 YYXZ=            -13.2686 ZZXY=             -5.6957
 N-N= 7.314211834895D+02 E-N=-2.893147487552D+03  KE= 6.052029237793D+02
 1\1\GINC-COMPUTE-8-9\SP\RmPW1PW91\6-31+G(d,p)\C6H10O5\MMARCARINO.IQUIR
 \12-Apr-2019\0\\# mpw1pw91/6-31+g** nmr scrf=(pcm,solvent=water)\\comm
 ent\\0,1\C,0,-0.684714,1.723302,0.580444\C,0,-0.605233,1.07258,-0.8074
 04\C,0,1.355945,0.74648,0.172218\C,0,-0.223805,-1.256357,0.174109\C,0,
 1.243778,-0.777423,0.334058\C,0,-1.007963,-0.414935,-0.862653\O,0,0.80
 9803,1.144048,-1.07138\O,0,0.593487,1.412353,1.171154\O,0,-2.403943,-0
 .595142,-0.69701\O,0,-0.954445,-1.151787,1.404675\O,0,2.080177,-1.3404
 55,-0.673212\H,0,-1.487703,1.32132,1.201627\H,0,-0.788215,2.811423,0.5
 05503\H,0,-1.131376,1.637792,-1.579203\H,0,2.398824,1.072062,0.215789\
 H,0,-0.211618,-2.303457,-0.154895\H,0,1.591782,-1.050839,1.339978\H,0,
 -2.516616,-0.802318,0.250699\H,0,-0.792929,-1.952103,1.9274\H,0,2.2066
 42,-2.27911,-0.461929\H,0,-0.737474,-0.768783,-1.86342\\Version=EM64L-
 G09RevC.01\State=1-A\HF=-610.6475652\RMSD=9.542e-09\Dipole=0.0491409,-
 1.6316171,1.0390231\Quadrupole=-4.8971102,8.3778371,-3.4807269,-5.0858
 468,0.0966563,-5.0005971\PG=C01 [X(C6H10O5)]\\@


 Some scientists claim that hydrogen, because it is so
 plentiful, is the basic building block of the universe. 
 I dispute that. I say that stupidity is far more
 abundant than hydrogen, and THAT is the basic building 
 block of the universe.
                   --Frank Zappa
 Job cpu time:  0 days  0 hours 24 minutes 52.8 seconds.
 File lengths (MBytes):  RWF=     82 Int=      0 D2E=      0 Chk=      5 Scr=      1
 Normal termination of Gaussian 09 at Fri Apr 12 10:53:14 2019.
