 Entering Gaussian System, Link 0=g09
 Input=/home/asarotti.iquir/SCF3/02_RSS_Levo18_OPTB_energy_b3lyp_smd.gjc
 Output=/home/asarotti.iquir/SCF3/02_RSS_Levo18_OPTB_energy_b3lyp_smd.log
 Initial command:
 /share/apps/Gaussian09/EM64T.SSE4.2-enabled/g09/l1.exe /tmp/Gau-24490.inp -scrdir=/tmp/
 Entering Link 1 = /share/apps/Gaussian09/EM64T.SSE4.2-enabled/g09/l1.exe PID=     24491.
  
 Copyright (c) 1988,1990,1992,1993,1995,1998,2003,2009,2011,
            Gaussian, Inc.  All Rights Reserved.
  
 This is part of the Gaussian(R) 09 program.  It is based on
 the Gaussian(R) 03 system (copyright 2003, Gaussian, Inc.),
 the Gaussian(R) 98 system (copyright 1998, Gaussian, Inc.),
 the Gaussian(R) 94 system (copyright 1995, Gaussian, Inc.),
 the Gaussian 92(TM) system (copyright 1992, Gaussian, Inc.),
 the Gaussian 90(TM) system (copyright 1990, Gaussian, Inc.),
 the Gaussian 88(TM) system (copyright 1988, Gaussian, Inc.),
 the Gaussian 86(TM) system (copyright 1986, Carnegie Mellon
 University), and the Gaussian 82(TM) system (copyright 1983,
 Carnegie Mellon University). Gaussian is a federally registered
 trademark of Gaussian, Inc.
  
 This software contains proprietary and confidential information,
 including trade secrets, belonging to Gaussian, Inc.
  
 This software is provided under written license and may be
 used, copied, transmitted, or stored only in accord with that
 written license.
  
 The following legend is applicable only to US Government
 contracts under FAR:
  
                    RESTRICTED RIGHTS LEGEND
  
 Use, reproduction and disclosure by the US Government is
 subject to restrictions as set forth in subparagraphs (a)
 and (c) of the Commercial Computer Software - Restricted
 Rights clause in FAR 52.227-19.
  
 Gaussian, Inc.
 340 Quinnipiac St., Bldg. 40, Wallingford CT 06492
  
  
 ---------------------------------------------------------------
 Warning -- This program may not be used in any manner that
 competes with the business of Gaussian, Inc. or will provide
 assistance to any competitor of Gaussian, Inc.  The licensee
 of this program is prohibited from giving any competitor of
 Gaussian, Inc. access to this program.  By using this program,
 the user acknowledges that Gaussian, Inc. is engaged in the
 business of creating and licensing software in the field of
 computational chemistry and represents and warrants to the
 licensee that it is not a competitor of Gaussian, Inc. and that
 it will not use this program in any manner prohibited above.
 ---------------------------------------------------------------
  

 Cite this work as:
 Gaussian 09, Revision C.01,
 M. J. Frisch, G. W. Trucks, H. B. Schlegel, G. E. Scuseria, 
 M. A. Robb, J. R. Cheeseman, G. Scalmani, V. Barone, B. Mennucci, 
 G. A. Petersson, H. Nakatsuji, M. Caricato, X. Li, H. P. Hratchian, 
 A. F. Izmaylov, J. Bloino, G. Zheng, J. L. Sonnenberg, M. Hada, 
 M. Ehara, K. Toyota, R. Fukuda, J. Hasegawa, M. Ishida, T. Nakajima, 
 Y. Honda, O. Kitao, H. Nakai, T. Vreven, J. A. Montgomery, Jr., 
 J. E. Peralta, F. Ogliaro, M. Bearpark, J. J. Heyd, E. Brothers, 
 K. N. Kudin, V. N. Staroverov, T. Keith, R. Kobayashi, J. Normand, 
 K. Raghavachari, A. Rendell, J. C. Burant, S. S. Iyengar, J. Tomasi, 
 M. Cossi, N. Rega, J. M. Millam, M. Klene, J. E. Knox, J. B. Cross, 
 V. Bakken, C. Adamo, J. Jaramillo, R. Gomperts, R. E. Stratmann, 
 O. Yazyev, A. J. Austin, R. Cammi, C. Pomelli, J. W. Ochterski, 
 R. L. Martin, K. Morokuma, V. G. Zakrzewski, G. A. Voth, 
 P. Salvador, J. J. Dannenberg, S. Dapprich, A. D. Daniels, 
 O. Farkas, J. B. Foresman, J. V. Ortiz, J. Cioslowski, 
 and D. J. Fox, Gaussian, Inc., Wallingford CT, 2010.
 
 ******************************************
 Gaussian 09:  EM64L-G09RevC.01 23-Sep-2011
                15-Apr-2019 
 ******************************************
 %nprocshared=4
 Will use up to    4 processors via shared memory.
 -----------------------------------------------------------
 # B3LYP/6-31+G** test scrf=(pcm,solvent=water,smd,dovacuum)
 -----------------------------------------------------------
 1/38=1/1;
 2/12=2,17=6,18=5,40=1/2;
 3/5=1,6=6,7=111,11=2,16=1,25=1,30=1,70=32101,72=1,74=-5/1,2,3;
 4//1;
 5/5=2,38=5,53=1/2;
 6/7=2,8=2,9=2,10=2,28=1/1;
 99/5=1,9=1/99;
 -------
 comment
 -------
 Charge =  0 Multiplicity = 1
 Symbolic Z-Matrix:
 6                    -2.16365   0.13096  -0.42584 
 6                    -1.33587   0.43494   0.82318 
 6                    -0.48158  -1.40631  -0.07043 
 6                     1.18543   0.4243    0.41447 
 6                     0.9272   -0.8569   -0.40924 
 6                    -0.07319   1.31299   0.54338 
 8                    -0.91318  -0.89914   1.18319 
 8                    -1.43742  -0.95355  -1.03045 
 8                    -0.16015   2.05918  -0.67695 
 8                     2.27021   1.18523  -0.0875 
 8                     1.94713  -1.82842  -0.19456 
 1                    -2.22169   0.96304  -1.12766 
 1                    -3.17166  -0.20071  -0.15004 
 1                    -1.92732   0.82675   1.65143 
 1                    -0.48016  -2.4998   -0.02796 
 1                     1.46326   0.10317   1.42456 
 1                     0.96287  -0.63035  -1.47826 
 1                    -0.56087   2.92135  -0.48788 
 1                     1.8658    1.78517  -0.74249 
 1                     1.98186  -2.01935   0.7579 
 1                     0.08503   2.00454   1.37737 
 
                          Input orientation:                          
 ---------------------------------------------------------------------
 Center     Atomic      Atomic             Coordinates (Angstroms)
 Number     Number       Type             X           Y           Z
 ---------------------------------------------------------------------
      1          6           0       -2.163647    0.130957   -0.425835
      2          6           0       -1.335867    0.434941    0.823175
      3          6           0       -0.481579   -1.406310   -0.070429
      4          6           0        1.185429    0.424298    0.414471
      5          6           0        0.927199   -0.856896   -0.409235
      6          6           0       -0.073190    1.312987    0.543377
      7          8           0       -0.913175   -0.899138    1.183193
      8          8           0       -1.437422   -0.953554   -1.030447
      9          8           0       -0.160146    2.059179   -0.676949
     10          8           0        2.270209    1.185229   -0.087504
     11          8           0        1.947134   -1.828424   -0.194556
     12          1           0       -2.221692    0.963037   -1.127655
     13          1           0       -3.171658   -0.200712   -0.150039
     14          1           0       -1.927316    0.826749    1.651427
     15          1           0       -0.480159   -2.499795   -0.027957
     16          1           0        1.463259    0.103171    1.424557
     17          1           0        0.962874   -0.630354   -1.478261
     18          1           0       -0.560868    2.921348   -0.487884
     19          1           0        1.865798    1.785173   -0.742493
     20          1           0        1.981855   -2.019351    0.757897
     21          1           0        0.085030    2.004536    1.377369
 ---------------------------------------------------------------------
                    Distance matrix (angstroms):
                    1          2          3          4          5
     1  C    0.000000
     2  C    1.528938   0.000000
     3  C    2.306265   2.217778   0.000000
     4  C    3.465324   2.554229   2.522929   0.000000
     5  C    3.244913   2.882559   1.549613   1.544873   0.000000
     6  C    2.589706   1.563203   2.817466   1.546126   2.572283
     7  O    2.283363   1.445008   1.419530   2.597413   2.434048
     8  O    1.438444   2.318221   1.428376   3.296303   2.446769
     9  O    2.791973   2.504165   3.532818   2.382143   3.123697
    10  O    4.570015   3.794213   3.780040   1.416948   2.465251
    11  O    4.559735   4.115421   2.468245   2.454764   1.424858
    12  H    1.090081   2.206651   3.124024   3.778474   3.707263
    13  H    1.096428   2.172862   2.948954   4.437738   4.159133
    14  H    2.203406   1.090563   3.168832   3.373605   3.902466
    15  H    3.148539   3.173222   1.094310   3.394149   2.196622
    16  H    4.071753   2.882159   2.880262   1.095712   2.138196
    17  H    3.385606   3.422816   2.161144   2.178131   1.093348
    18  H    3.218545   2.915771   4.348469   3.177901   4.061485
    19  H    4.367279   3.811181   4.018384   1.911400   2.823572
    20  H    4.817700   4.127359   2.670290   2.593001   1.955965
    21  H    3.437789   2.188540   3.748471   2.152952   3.476923
                    6          7          8          9         10
     6  C    0.000000
     7  O    2.451211   0.000000
     8  O    3.078191   2.275521   0.000000
     9  O    1.433025   3.574748   3.291345   0.000000
    10  O    2.430196   4.011632   4.382928   2.649124   0.000000
    11  O    3.807193   3.308041   3.594347   4.448234   3.032811
    12  H    2.744244   3.243444   2.073126   2.377948   4.616109
    13  H    3.517473   2.714047   2.085537   3.801835   5.615929
    14  H    2.214043   2.055824   3.256059   3.172240   4.557588
    15  H    3.876771   2.053409   2.076584   4.616042   4.598638
    16  H    2.144950   2.590428   3.944320   3.298142   2.026906
    17  H    2.989485   3.267284   2.463010   3.022724   2.634326
    18  H    1.971840   4.184822   4.009687   0.969360   3.345058
    19  H    2.374046   4.316999   4.300559   2.045440   0.975957
    20  H    3.920932   3.133202   4.003193   4.825076   3.326738
    21  H    1.094905   3.076596   4.106791   2.069618   2.755381
                   11         12         13         14         15
    11  O    0.000000
    12  H    5.103140   0.000000
    13  H    5.371542   1.792339   0.000000
    14  H    5.046678   2.797951   2.418541   0.000000
    15  H    2.523935   4.029079   3.541871   3.997560   0.000000
    16  H    2.566461   4.564211   4.904503   3.474339   3.558385
    17  H    2.012967   3.578167   4.363842   4.502365   2.771378
    18  H    5.379261   2.646247   4.083824   3.291075   5.441217
    19  H    3.655808   4.187103   5.447082   4.586627   4.937107
    20  H    0.972021   5.488146   5.539900   4.917347   2.628670
    21  H    4.542022   3.561016   4.219255   2.347728   4.752197
                   16         17         18         19         20
    16  H    0.000000
    17  H    3.035588   0.000000
    18  H    3.961899   3.989640   0.000000
    19  H    2.772593   2.681678   2.691547   0.000000
    20  H    2.284399   2.822771   5.694552   4.091337   0.000000
    21  H    2.348815   3.983451   2.176441   2.777241   4.491476
                   21
    21  H    0.000000
 Stoichiometry    C6H10O5
 Framework group  C1[X(C6H10O5)]
 Deg. of freedom    57
 Full point group                 C1      NOp   1
 Largest Abelian subgroup         C1      NOp   1
 Largest concise Abelian subgroup C1      NOp   1
                         Standard orientation:                         
 ---------------------------------------------------------------------
 Center     Atomic      Atomic             Coordinates (Angstroms)
 Number     Number       Type             X           Y           Z
 ---------------------------------------------------------------------
      1          6           0       -2.163647    0.130957   -0.425835
      2          6           0       -1.335867    0.434941    0.823175
      3          6           0       -0.481579   -1.406310   -0.070429
      4          6           0        1.185429    0.424298    0.414471
      5          6           0        0.927199   -0.856896   -0.409235
      6          6           0       -0.073190    1.312987    0.543377
      7          8           0       -0.913175   -0.899138    1.183193
      8          8           0       -1.437422   -0.953554   -1.030447
      9          8           0       -0.160146    2.059179   -0.676949
     10          8           0        2.270209    1.185229   -0.087504
     11          8           0        1.947134   -1.828424   -0.194556
     12          1           0       -2.221692    0.963037   -1.127655
     13          1           0       -3.171658   -0.200712   -0.150039
     14          1           0       -1.927316    0.826749    1.651427
     15          1           0       -0.480159   -2.499795   -0.027957
     16          1           0        1.463259    0.103171    1.424557
     17          1           0        0.962874   -0.630354   -1.478261
     18          1           0       -0.560868    2.921348   -0.487884
     19          1           0        1.865798    1.785173   -0.742493
     20          1           0        1.981855   -2.019351    0.757897
     21          1           0        0.085030    2.004536    1.377369
 ---------------------------------------------------------------------
 Rotational constants (GHZ):      1.5127009      1.2487137      0.8641463
 Standard basis: 6-31+G(d,p) (6D, 7F)
 There are   259 symmetry adapted basis functions of A   symmetry.
 Integral buffers will be    131072 words long.
 Raffenetti 2 integral format.
 Two-electron integral symmetry is turned on.
   259 basis functions,   422 primitive gaussians,   259 cartesian basis functions
    43 alpha electrons       43 beta electrons
       nuclear repulsion energy       723.9812382715 Hartrees.
 NAtoms=   21 NActive=   21 NUniq=   21 SFac= 1.00D+00 NAtFMM=   60 NAOKFM=F Big=F
 ------------------------------------------------------------------------------
 Polarizable Continuum Model (PCM)
 =================================
 Model                : C-PCM.
 Atomic radii         : SMD-Coulomb.
 Polarization charges : Total charges.
 Charge compensation  : None.
 Solution method      : Matrix inversion.
 Cavity type          : VdW (van der Waals Surface) (Alpha=1.000).
 Cavity algorithm     : GePol (No added spheres)
                        Default sphere list used, NSphG=   21.
                        Lebedev-Laikov grids with approx.  5.0 points / Ang**2.
                        Smoothing algorithm: Karplus/York (Gamma=1.0000).
                        Polarization charges: spherical gaussians, with
                                              point-specific exponents (IZeta= 3).
                        Self-potential: point-specific (ISelfS= 7).
                        Self-field    : sphere-specific E.n sum rule (ISelfD= 2).
 Solvent              : Water, Eps=  78.355300 Eps(inf)=   1.777849
 ------------------------------------------------------------------------------
 ------------------------------------------------------------------------------
 Atomic radii for non-electrostatic terms: SMD-CDS.
 ------------------------------------------------------------------------------
 Nuclear repulsion after PCM non-electrostatic terms =      723.9864585516 Hartrees.
 One-electron integrals computed using PRISM.
 NBasis=   259 RedAO= T  NBF=   259
 NBsUse=   259 1.00D-06 NBFU=   259
 Harris functional with IExCor=  402 diagonalized for initial guess.
 ExpMin= 4.38D-02 ExpMax= 5.48D+03 ExpMxC= 8.25D+02 IAcc=2 IRadAn=         4 AccDes= 0.00D+00
 HarFok:  IExCor=  402 AccDes= 0.00D+00 IRadAn=         4 IDoV= 1
 ScaDFX=  1.000000  1.000000  1.000000  1.000000
 FoFCou: FMM=F IPFlag=           0 FMFlag=      100000 FMFlg1=           0
         NFxFlg=           0 DoJE=T BraDBF=F KetDBF=T FulRan=T
         Omega=  0.000000  0.000000  1.000000  0.000000  0.000000 ICntrl=     500 IOpCl=  0
         NMat0=    1 NMatS0=    1 NMatT0=    0 NMatD0=    1 NMtDS0=    0 NMtDT0=    0
         I1Cent=           4 NGrid=           0.
 Petite list used in FoFCou.
 Initial guess orbital symmetries:
       Occupied  (A) (A) (A) (A) (A) (A) (A) (A) (A) (A) (A) (A)
                 (A) (A) (A) (A) (A) (A) (A) (A) (A) (A) (A) (A)
                 (A) (A) (A) (A) (A) (A) (A) (A) (A) (A) (A) (A)
                 (A) (A) (A) (A) (A) (A) (A)
       Virtual   (A) (A) (A) (A) (A) (A) (A) (A) (A) (A) (A) (A)
                 (A) (A) (A) (A) (A) (A) (A) (A) (A) (A) (A) (A)
                 (A) (A) (A) (A) (A) (A) (A) (A) (A) (A) (A) (A)
                 (A) (A) (A) (A) (A) (A) (A) (A) (A) (A) (A) (A)
                 (A) (A) (A) (A) (A) (A) (A) (A) (A) (A) (A) (A)
                 (A) (A) (A) (A) (A) (A) (A) (A) (A) (A) (A) (A)
                 (A) (A) (A) (A) (A) (A) (A) (A) (A) (A) (A) (A)
                 (A) (A) (A) (A) (A) (A) (A) (A) (A) (A) (A) (A)
                 (A) (A) (A) (A) (A) (A) (A) (A) (A) (A) (A) (A)
                 (A) (A) (A) (A) (A) (A) (A) (A) (A) (A) (A) (A)
                 (A) (A) (A) (A) (A) (A) (A) (A) (A) (A) (A) (A)
                 (A) (A) (A) (A) (A) (A) (A) (A) (A) (A) (A) (A)
                 (A) (A) (A) (A) (A) (A) (A) (A) (A) (A) (A) (A)
                 (A) (A) (A) (A) (A) (A) (A) (A) (A) (A) (A) (A)
                 (A) (A) (A) (A) (A) (A) (A) (A) (A) (A) (A) (A)
                 (A) (A) (A) (A) (A) (A) (A) (A) (A) (A) (A) (A)
                 (A) (A) (A) (A) (A) (A) (A) (A) (A) (A) (A) (A)
                 (A) (A) (A) (A) (A) (A) (A) (A) (A) (A) (A) (A)
 The electronic state of the initial guess is 1-A.
 Requested convergence on RMS density matrix=1.00D-08 within 128 cycles.
 Requested convergence on MAX density matrix=1.00D-06.
 Requested convergence on             energy=1.00D-06.
 No special actions if energy rises.
 Error on total polarization charges =  0.05746
 SCF Done:  E(RB3LYP) =  -610.801695692     A.U. after   12 cycles
             Convg  =    0.3655D-08             -V/T =  2.0090
 SMD-CDS (non-electrostatic) energy       (kcal/mol) =       3.28
 (included in total energy above)

 **********************************************************************

            Population analysis using the SCF density.

 **********************************************************************

 Orbital symmetries:
       Occupied  (A) (A) (A) (A) (A) (A) (A) (A) (A) (A) (A) (A)
                 (A) (A) (A) (A) (A) (A) (A) (A) (A) (A) (A) (A)
                 (A) (A) (A) (A) (A) (A) (A) (A) (A) (A) (A) (A)
                 (A) (A) (A) (A) (A) (A) (A)
       Virtual   (A) (A) (A) (A) (A) (A) (A) (A) (A) (A) (A) (A)
                 (A) (A) (A) (A) (A) (A) (A) (A) (A) (A) (A) (A)
                 (A) (A) (A) (A) (A) (A) (A) (A) (A) (A) (A) (A)
                 (A) (A) (A) (A) (A) (A) (A) (A) (A) (A) (A) (A)
                 (A) (A) (A) (A) (A) (A) (A) (A) (A) (A) (A) (A)
                 (A) (A) (A) (A) (A) (A) (A) (A) (A) (A) (A) (A)
                 (A) (A) (A) (A) (A) (A) (A) (A) (A) (A) (A) (A)
                 (A) (A) (A) (A) (A) (A) (A) (A) (A) (A) (A) (A)
                 (A) (A) (A) (A) (A) (A) (A) (A) (A) (A) (A) (A)
                 (A) (A) (A) (A) (A) (A) (A) (A) (A) (A) (A) (A)
                 (A) (A) (A) (A) (A) (A) (A) (A) (A) (A) (A) (A)
                 (A) (A) (A) (A) (A) (A) (A) (A) (A) (A) (A) (A)
                 (A) (A) (A) (A) (A) (A) (A) (A) (A) (A) (A) (A)
                 (A) (A) (A) (A) (A) (A) (A) (A) (A) (A) (A) (A)
                 (A) (A) (A) (A) (A) (A) (A) (A) (A) (A) (A) (A)
                 (A) (A) (A) (A) (A) (A) (A) (A) (A) (A) (A) (A)
                 (A) (A) (A) (A) (A) (A) (A) (A) (A) (A) (A) (A)
                 (A) (A) (A) (A) (A) (A) (A) (A) (A) (A) (A) (A)
 The electronic state is 1-A.
 Alpha  occ. eigenvalues --  -19.18295 -19.17380 -19.17373 -19.17016 -19.16569
 Alpha  occ. eigenvalues --  -10.29212 -10.25051 -10.25010 -10.24464 -10.24176
 Alpha  occ. eigenvalues --  -10.23594  -1.10938  -1.05387  -1.03695  -1.02104
 Alpha  occ. eigenvalues --   -1.01067  -0.78806  -0.77684  -0.68016  -0.65521
 Alpha  occ. eigenvalues --   -0.62249  -0.58827  -0.55515  -0.53864  -0.51481
 Alpha  occ. eigenvalues --   -0.50113  -0.47749  -0.46984  -0.45995  -0.44213
 Alpha  occ. eigenvalues --   -0.42543  -0.41219  -0.40460  -0.37958  -0.37154
 Alpha  occ. eigenvalues --   -0.36121  -0.34610  -0.33828  -0.32863  -0.31113
 Alpha  occ. eigenvalues --   -0.29139  -0.27889  -0.25560
 Alpha virt. eigenvalues --    0.00282   0.01714   0.02258   0.02701   0.04054
 Alpha virt. eigenvalues --    0.04904   0.04956   0.05552   0.05753   0.08186
 Alpha virt. eigenvalues --    0.08316   0.09085   0.10123   0.10760   0.11490
 Alpha virt. eigenvalues --    0.12508   0.12577   0.13533   0.14020   0.14974
 Alpha virt. eigenvalues --    0.15455   0.15575   0.16061   0.16671   0.17318
 Alpha virt. eigenvalues --    0.17679   0.18732   0.19238   0.19893   0.21182
 Alpha virt. eigenvalues --    0.21537   0.22123   0.22486   0.23059   0.23921
 Alpha virt. eigenvalues --    0.24445   0.25367   0.25509   0.25779   0.27223
 Alpha virt. eigenvalues --    0.28497   0.28711   0.29378   0.29907   0.30135
 Alpha virt. eigenvalues --    0.30581   0.30992   0.31862   0.32221   0.32597
 Alpha virt. eigenvalues --    0.34314   0.34989   0.35036   0.35639   0.36415
 Alpha virt. eigenvalues --    0.36836   0.37024   0.38371   0.39660   0.40481
 Alpha virt. eigenvalues --    0.40905   0.42212   0.43804   0.44401   0.44577
 Alpha virt. eigenvalues --    0.45755   0.64762   0.66535   0.68708   0.69523
 Alpha virt. eigenvalues --    0.70945   0.73699   0.74241   0.76546   0.77278
 Alpha virt. eigenvalues --    0.78704   0.79375   0.81394   0.82608   0.85336
 Alpha virt. eigenvalues --    0.86842   0.90166   0.92148   0.94042   0.97619
 Alpha virt. eigenvalues --    0.99388   1.03085   1.03447   1.04923   1.05620
 Alpha virt. eigenvalues --    1.06428   1.09106   1.09826   1.10860   1.12300
 Alpha virt. eigenvalues --    1.17782   1.21250   1.22375   1.24676   1.26375
 Alpha virt. eigenvalues --    1.26974   1.29861   1.31131   1.31768   1.32037
 Alpha virt. eigenvalues --    1.34398   1.36033   1.36776   1.38284   1.38914
 Alpha virt. eigenvalues --    1.41477   1.43784   1.45435   1.47913   1.50429
 Alpha virt. eigenvalues --    1.51077   1.53081   1.55968   1.57721   1.61449
 Alpha virt. eigenvalues --    1.61666   1.62328   1.64921   1.66963   1.69651
 Alpha virt. eigenvalues --    1.70601   1.73718   1.75706   1.76327   1.78005
 Alpha virt. eigenvalues --    1.79479   1.81949   1.83280   1.84559   1.85072
 Alpha virt. eigenvalues --    1.88499   1.92911   1.95025   1.95747   1.97375
 Alpha virt. eigenvalues --    1.99313   2.01299   2.03380   2.03711   2.06881
 Alpha virt. eigenvalues --    2.09638   2.09994   2.13313   2.14006   2.16512
 Alpha virt. eigenvalues --    2.18385   2.20699   2.23621   2.30004   2.32267
 Alpha virt. eigenvalues --    2.33492   2.36229   2.39998   2.41489   2.41935
 Alpha virt. eigenvalues --    2.43701   2.46590   2.48210   2.48838   2.52024
 Alpha virt. eigenvalues --    2.56532   2.57328   2.58676   2.60267   2.63357
 Alpha virt. eigenvalues --    2.65113   2.65860   2.67424   2.67977   2.69961
 Alpha virt. eigenvalues --    2.71784   2.71804   2.75379   2.76045   2.77911
 Alpha virt. eigenvalues --    2.81800   2.83944   2.87286   2.88565   2.92184
 Alpha virt. eigenvalues --    2.92908   2.97406   2.98528   2.99724   3.01918
 Alpha virt. eigenvalues --    3.06359   3.08368   3.09510   3.12435   3.25091
 Alpha virt. eigenvalues --    3.34714   3.39449   3.40731   3.43973   3.48770
 Alpha virt. eigenvalues --    3.49431   3.53898   3.54899   3.57153   3.59132
 Alpha virt. eigenvalues --    4.29019   4.29725   4.35615   4.44226   4.50218
 Alpha virt. eigenvalues --    4.57309   4.59674   4.73124   4.77524   4.94112
 Alpha virt. eigenvalues --    5.00797
          Condensed to atoms (all electrons):
              1          2          3          4          5          6
     1  C    5.433230   0.134450  -0.268662   0.093296   0.031049  -0.327939
     2  C    0.134450   6.335970  -0.502630  -0.264257   0.216545  -0.124635
     3  C   -0.268662  -0.502630   6.012941   0.176612  -0.508755   0.233503
     4  C    0.093296  -0.264257   0.176612   6.185266  -0.473303  -0.126520
     5  C    0.031049   0.216545  -0.508755  -0.473303   6.463376  -0.135641
     6  C   -0.327939  -0.124635   0.233503  -0.126520  -0.135641   6.090244
     7  O   -0.032383   0.077284   0.232277   0.019412  -0.072522  -0.156112
     8  O    0.161536  -0.159555   0.310602  -0.039663  -0.118130   0.086755
     9  O    0.035311  -0.102970  -0.033115  -0.108955   0.061536   0.118688
    10  O    0.002777   0.005181   0.037652   0.275421  -0.131307  -0.080105
    11  O    0.000954  -0.002381  -0.070931  -0.080540   0.214362   0.031363
    12  H    0.464599  -0.123014   0.018737   0.008050   0.002838  -0.008085
    13  H    0.387576  -0.013137  -0.026156  -0.007764   0.005481   0.029696
    14  H   -0.019056   0.330987   0.021684  -0.006418  -0.004903   0.015847
    15  H    0.012282   0.007181   0.404809  -0.006379  -0.063232   0.014206
    16  H    0.006227  -0.008639  -0.022835   0.487642  -0.073934  -0.054506
    17  H    0.014852  -0.006930  -0.091194  -0.091361   0.489397   0.012197
    18  H   -0.004892  -0.021927   0.003279   0.013423  -0.004862   0.024667
    19  H    0.001346   0.012274  -0.007935   0.056900  -0.031358  -0.058048
    20  H    0.000447   0.000527  -0.035686  -0.047379   0.065672   0.004668
    21  H    0.013463  -0.047624  -0.006743  -0.022433   0.018454   0.366688
              7          8          9         10         11         12
     1  C   -0.032383   0.161536   0.035311   0.002777   0.000954   0.464599
     2  C    0.077284  -0.159555  -0.102970   0.005181  -0.002381  -0.123014
     3  C    0.232277   0.310602  -0.033115   0.037652  -0.070931   0.018737
     4  C    0.019412  -0.039663  -0.108955   0.275421  -0.080540   0.008050
     5  C   -0.072522  -0.118130   0.061536  -0.131307   0.214362   0.002838
     6  C   -0.156112   0.086755   0.118688  -0.080105   0.031363  -0.008085
     7  O    8.440975  -0.067239   0.020208  -0.001051  -0.001141   0.010006
     8  O   -0.067239   8.419666  -0.004166  -0.002593   0.003708  -0.045450
     9  O    0.020208  -0.004166   8.448863  -0.018475  -0.001825   0.003153
    10  O   -0.001051  -0.002593  -0.018475   8.333543   0.002576  -0.000019
    11  O   -0.001141   0.003708  -0.001825   0.002576   8.319195  -0.000005
    12  H    0.010006  -0.045450   0.003153  -0.000019  -0.000005   0.531628
    13  H   -0.004026  -0.050194  -0.001712  -0.000001   0.000058  -0.039856
    14  H   -0.035043   0.007727   0.002166  -0.000132   0.000096   0.002232
    15  H   -0.044268  -0.044364   0.000268  -0.000390   0.002283  -0.000265
    16  H    0.006201  -0.000328   0.008133  -0.064873  -0.010063   0.000000
    17  H    0.011658  -0.002962   0.003366  -0.000666  -0.062698  -0.000074
    18  H   -0.000474   0.000784   0.251286  -0.001262   0.000013  -0.000963
    19  H    0.000366  -0.000310   0.026749   0.249509  -0.000347   0.000007
    20  H    0.004894  -0.000082   0.000073  -0.001153   0.252458   0.000000
    21  H    0.006887  -0.000751  -0.037695   0.005326  -0.000334   0.000084
             13         14         15         16         17         18
     1  C    0.387576  -0.019056   0.012282   0.006227   0.014852  -0.004892
     2  C   -0.013137   0.330987   0.007181  -0.008639  -0.006930  -0.021927
     3  C   -0.026156   0.021684   0.404809  -0.022835  -0.091194   0.003279
     4  C   -0.007764  -0.006418  -0.006379   0.487642  -0.091361   0.013423
     5  C    0.005481  -0.004903  -0.063232  -0.073934   0.489397  -0.004862
     6  C    0.029696   0.015847   0.014206  -0.054506   0.012197   0.024667
     7  O   -0.004026  -0.035043  -0.044268   0.006201   0.011658  -0.000474
     8  O   -0.050194   0.007727  -0.044364  -0.000328  -0.002962   0.000784
     9  O   -0.001712   0.002166   0.000268   0.008133   0.003366   0.251286
    10  O   -0.000001  -0.000132  -0.000390  -0.064873  -0.000666  -0.001262
    11  O    0.000058   0.000096   0.002283  -0.010063  -0.062698   0.000013
    12  H   -0.039856   0.002232  -0.000265   0.000000  -0.000074  -0.000963
    13  H    0.562205  -0.003865   0.000551   0.000001  -0.000026   0.000029
    14  H   -0.003865   0.514689  -0.000069   0.000092   0.000024   0.000488
    15  H    0.000551  -0.000069   0.544924  -0.000161   0.000716   0.000001
    16  H    0.000001   0.000092  -0.000161   0.541847   0.004034  -0.000170
    17  H   -0.000026   0.000024   0.000716   0.004034   0.534519  -0.000011
    18  H    0.000029   0.000488   0.000001  -0.000170  -0.000011   0.318992
    19  H    0.000000  -0.000020  -0.000004   0.006146   0.001208  -0.001234
    20  H    0.000000   0.000002  -0.000535   0.004883   0.006491   0.000000
    21  H   -0.000083  -0.007233   0.000004  -0.007401  -0.000115  -0.009440
             19         20         21
     1  C    0.001346   0.000447   0.013463
     2  C    0.012274   0.000527  -0.047624
     3  C   -0.007935  -0.035686  -0.006743
     4  C    0.056900  -0.047379  -0.022433
     5  C   -0.031358   0.065672   0.018454
     6  C   -0.058048   0.004668   0.366688
     7  O    0.000366   0.004894   0.006887
     8  O   -0.000310  -0.000082  -0.000751
     9  O    0.026749   0.000073  -0.037695
    10  O    0.249509  -0.001153   0.005326
    11  O   -0.000347   0.252458  -0.000334
    12  H    0.000007   0.000000   0.000084
    13  H    0.000000   0.000000  -0.000083
    14  H   -0.000020   0.000002  -0.007233
    15  H   -0.000004  -0.000535   0.000004
    16  H    0.006146   0.004883  -0.007401
    17  H    0.001208   0.006491  -0.000115
    18  H   -0.001234   0.000000  -0.009440
    19  H    0.339953   0.000019  -0.000893
    20  H    0.000019   0.344000  -0.000023
    21  H   -0.000893  -0.000023   0.556677
 Mulliken atomic charges:
              1
     1  C   -0.140462
     2  C    0.257301
     3  C    0.122545
     4  C   -0.041051
     5  C    0.049235
     6  C    0.043071
     7  O   -0.415907
     8  O   -0.454990
     9  O   -0.670883
    10  O   -0.609957
    11  O   -0.596802
    12  H    0.176396
    13  H    0.161223
    14  H    0.180707
    15  H    0.172441
    16  H    0.177703
    17  H    0.177576
    18  H    0.432273
    19  H    0.405672
    20  H    0.400725
    21  H    0.173184
 Sum of Mulliken atomic charges =   0.00000
 Mulliken charges with hydrogens summed into heavy atoms:
              1
     1  C    0.197156
     2  C    0.438007
     3  C    0.294986
     4  C    0.136652
     5  C    0.226812
     6  C    0.216255
     7  O   -0.415907
     8  O   -0.454990
     9  O   -0.238610
    10  O   -0.204285
    11  O   -0.196077
 Sum of Mulliken charges with hydrogens summed into heavy atoms =   0.00000
 Electronic spatial extent (au):  <R**2>=           1451.5653
 Charge=              0.0000 electrons
 Dipole moment (field-independent basis, Debye):
    X=             -4.4675    Y=              4.5940    Z=              3.3734  Tot=              7.2417
 Quadrupole moment (field-independent basis, Debye-Ang):
   XX=            -74.3332   YY=            -56.3277   ZZ=            -66.4929
   XY=             -7.1341   XZ=              1.2448   YZ=             -2.5524
 Traceless Quadrupole moment (field-independent basis, Debye-Ang):
   XX=             -8.6152   YY=              9.3902   ZZ=             -0.7750
   XY=             -7.1341   XZ=              1.2448   YZ=             -2.5524
 Octapole moment (field-independent basis, Debye-Ang**2):
  XXX=            -49.0605  YYY=             37.0988  ZZZ=              3.2362  XYY=            -11.6362
  XXY=              9.1168  XXZ=             10.3659  XZZ=             11.0523  YZZ=              8.1102
  YYZ=              7.7787  XYZ=            -11.6969
 Hexadecapole moment (field-independent basis, Debye-Ang**3):
 XXXX=           -941.4112 YYYY=           -546.1122 ZZZZ=           -260.5237 XXXY=            -25.8589
 XXXZ=             11.0093 YYYX=            -15.5582 YYYZ=            -36.8984 ZZZX=             -4.1167
 ZZZY=             -0.8399 XXYY=           -274.6440 XXZZ=           -179.7620 YYZZ=           -153.8255
 XXYZ=            -33.1186 YYXZ=             11.9411 ZZXY=            -15.6721
 N-N= 7.239864585516D+02 E-N=-2.878060522724D+03  KE= 6.053311091766D+02

 Test job not archived.
 1\1\GINC-COMPUTE-10-2\SP\RB3LYP\6-31+G(d,p)\C6H10O5\ROOT\15-Apr-2019\0
 \\# B3LYP/6-31+G** test scrf=(pcm,solvent=water,smd,dovacuum)\\comment
 \\0,1\C,0,-2.163647,0.130957,-0.425835\C,0,-1.335867,0.434941,0.823175
 \C,0,-0.481579,-1.40631,-0.070429\C,0,1.185429,0.424298,0.414471\C,0,0
 .927199,-0.856896,-0.409235\C,0,-0.07319,1.312987,0.543377\O,0,-0.9131
 75,-0.899138,1.183193\O,0,-1.437422,-0.953554,-1.030447\O,0,-0.160146,
 2.059179,-0.676949\O,0,2.270209,1.185229,-0.087504\O,0,1.947134,-1.828
 424,-0.194556\H,0,-2.221692,0.963037,-1.127655\H,0,-3.171658,-0.200712
 ,-0.150039\H,0,-1.927316,0.826749,1.651427\H,0,-0.480159,-2.499795,-0.
 027957\H,0,1.463259,0.103171,1.424557\H,0,0.962874,-0.630354,-1.478261
 \H,0,-0.560868,2.921348,-0.487884\H,0,1.865798,1.785173,-0.742493\H,0,
 1.981855,-2.019351,0.757897\H,0,0.08503,2.004536,1.377369\\Version=EM6
 4L-G09RevC.01\State=1-A\HF=-610.8016957\RMSD=3.655e-09\Dipole=-1.75763
 13,1.8074238,1.3271994\Quadrupole=-6.4052078,6.9813864,-0.5761786,-5.3
 040582,0.9254828,-1.8976497\PG=C01 [X(C6H10O5)]\\@


 TO BEHOLD HARMS OF OUR OWN HANDS DOING,
 WHERE NONE BESIDE US WROUGHT,
 CAUSES SHARP RUING...

                                         SOPHOCLES
 Job cpu time:  0 days  0 hours  5 minutes 53.5 seconds.
 File lengths (MBytes):  RWF=     56 Int=      0 D2E=      0 Chk=      4 Scr=      1
 Normal termination of Gaussian 09 at Mon Apr 15 18:02:54 2019.
