 Entering Gaussian System, Link 0=g09
 Input=/home/asarotti.iquir/SCF3/02_RSS_Levo11_OPTB_energy_b3lyp_smd.gjc
 Output=/home/asarotti.iquir/SCF3/02_RSS_Levo11_OPTB_energy_b3lyp_smd.log
 Initial command:
 /share/apps/Gaussian09/EM64T.SSE4.2-enabled/g09/l1.exe /tmp/Gau-17041.inp -scrdir=/tmp/
 Entering Link 1 = /share/apps/Gaussian09/EM64T.SSE4.2-enabled/g09/l1.exe PID=     17042.
  
 Copyright (c) 1988,1990,1992,1993,1995,1998,2003,2009,2011,
            Gaussian, Inc.  All Rights Reserved.
  
 This is part of the Gaussian(R) 09 program.  It is based on
 the Gaussian(R) 03 system (copyright 2003, Gaussian, Inc.),
 the Gaussian(R) 98 system (copyright 1998, Gaussian, Inc.),
 the Gaussian(R) 94 system (copyright 1995, Gaussian, Inc.),
 the Gaussian 92(TM) system (copyright 1992, Gaussian, Inc.),
 the Gaussian 90(TM) system (copyright 1990, Gaussian, Inc.),
 the Gaussian 88(TM) system (copyright 1988, Gaussian, Inc.),
 the Gaussian 86(TM) system (copyright 1986, Carnegie Mellon
 University), and the Gaussian 82(TM) system (copyright 1983,
 Carnegie Mellon University). Gaussian is a federally registered
 trademark of Gaussian, Inc.
  
 This software contains proprietary and confidential information,
 including trade secrets, belonging to Gaussian, Inc.
  
 This software is provided under written license and may be
 used, copied, transmitted, or stored only in accord with that
 written license.
  
 The following legend is applicable only to US Government
 contracts under FAR:
  
                    RESTRICTED RIGHTS LEGEND
  
 Use, reproduction and disclosure by the US Government is
 subject to restrictions as set forth in subparagraphs (a)
 and (c) of the Commercial Computer Software - Restricted
 Rights clause in FAR 52.227-19.
  
 Gaussian, Inc.
 340 Quinnipiac St., Bldg. 40, Wallingford CT 06492
  
  
 ---------------------------------------------------------------
 Warning -- This program may not be used in any manner that
 competes with the business of Gaussian, Inc. or will provide
 assistance to any competitor of Gaussian, Inc.  The licensee
 of this program is prohibited from giving any competitor of
 Gaussian, Inc. access to this program.  By using this program,
 the user acknowledges that Gaussian, Inc. is engaged in the
 business of creating and licensing software in the field of
 computational chemistry and represents and warrants to the
 licensee that it is not a competitor of Gaussian, Inc. and that
 it will not use this program in any manner prohibited above.
 ---------------------------------------------------------------
  

 Cite this work as:
 Gaussian 09, Revision C.01,
 M. J. Frisch, G. W. Trucks, H. B. Schlegel, G. E. Scuseria, 
 M. A. Robb, J. R. Cheeseman, G. Scalmani, V. Barone, B. Mennucci, 
 G. A. Petersson, H. Nakatsuji, M. Caricato, X. Li, H. P. Hratchian, 
 A. F. Izmaylov, J. Bloino, G. Zheng, J. L. Sonnenberg, M. Hada, 
 M. Ehara, K. Toyota, R. Fukuda, J. Hasegawa, M. Ishida, T. Nakajima, 
 Y. Honda, O. Kitao, H. Nakai, T. Vreven, J. A. Montgomery, Jr., 
 J. E. Peralta, F. Ogliaro, M. Bearpark, J. J. Heyd, E. Brothers, 
 K. N. Kudin, V. N. Staroverov, T. Keith, R. Kobayashi, J. Normand, 
 K. Raghavachari, A. Rendell, J. C. Burant, S. S. Iyengar, J. Tomasi, 
 M. Cossi, N. Rega, J. M. Millam, M. Klene, J. E. Knox, J. B. Cross, 
 V. Bakken, C. Adamo, J. Jaramillo, R. Gomperts, R. E. Stratmann, 
 O. Yazyev, A. J. Austin, R. Cammi, C. Pomelli, J. W. Ochterski, 
 R. L. Martin, K. Morokuma, V. G. Zakrzewski, G. A. Voth, 
 P. Salvador, J. J. Dannenberg, S. Dapprich, A. D. Daniels, 
 O. Farkas, J. B. Foresman, J. V. Ortiz, J. Cioslowski, 
 and D. J. Fox, Gaussian, Inc., Wallingford CT, 2010.
 
 ******************************************
 Gaussian 09:  EM64L-G09RevC.01 23-Sep-2011
                15-Apr-2019 
 ******************************************
 %nprocshared=4
 Will use up to    4 processors via shared memory.
 -----------------------------------------------------------
 # B3LYP/6-31+G** test scrf=(pcm,solvent=water,smd,dovacuum)
 -----------------------------------------------------------
 1/38=1/1;
 2/12=2,17=6,18=5,40=1/2;
 3/5=1,6=6,7=111,11=2,16=1,25=1,30=1,70=32101,72=1,74=-5/1,2,3;
 4//1;
 5/5=2,38=5,53=1/2;
 6/7=2,8=2,9=2,10=2,28=1/1;
 99/5=1,9=1/99;
 -------
 comment
 -------
 Charge =  0 Multiplicity = 1
 Symbolic Z-Matrix:
 6                    -2.13795   0.22891  -0.47307 
 6                    -1.3214    0.54252   0.78558 
 6                    -0.56683  -1.38807  -0.00198 
 6                     1.18249   0.35812   0.44167 
 6                     0.84355  -0.8896   -0.39025 
 6                    -0.00175   1.34078   0.51474 
 8                    -0.97964  -0.79302   1.21834 
 8                    -1.52071  -0.97057  -0.97677 
 8                    -0.00629   2.0537   -0.72721 
 8                     2.356     0.99967  -0.03683 
 8                     1.78122  -1.93038  -0.13108 
 1                    -2.08821   1.01338  -1.22911 
 1                    -3.18271   0.02194  -0.21525 
 1                    -1.91415   1.0025    1.57691 
 1                    -0.59179  -2.47555   0.1066 
 1                     1.40383   0.01038   1.45422 
 1                     0.83922  -0.63456  -1.45894 
 1                    -0.38305   2.93494  -0.58072 
 1                     2.04501   1.59363  -0.74594 
 1                     2.66087  -1.54133  -0.27468 
 1                     0.17781   2.04345   1.33531 
 
                          Input orientation:                          
 ---------------------------------------------------------------------
 Center     Atomic      Atomic             Coordinates (Angstroms)
 Number     Number       Type             X           Y           Z
 ---------------------------------------------------------------------
      1          6           0       -2.137955    0.228911   -0.473072
      2          6           0       -1.321402    0.542520    0.785580
      3          6           0       -0.566834   -1.388067   -0.001981
      4          6           0        1.182488    0.358119    0.441667
      5          6           0        0.843547   -0.889600   -0.390253
      6          6           0       -0.001751    1.340778    0.514741
      7          8           0       -0.979640   -0.793022    1.218336
      8          8           0       -1.520709   -0.970568   -0.976772
      9          8           0       -0.006287    2.053705   -0.727213
     10          8           0        2.355998    0.999669   -0.036831
     11          8           0        1.781217   -1.930378   -0.131081
     12          1           0       -2.088215    1.013382   -1.229111
     13          1           0       -3.182712    0.021936   -0.215251
     14          1           0       -1.914151    1.002499    1.576905
     15          1           0       -0.591792   -2.475552    0.106599
     16          1           0        1.403827    0.010375    1.454221
     17          1           0        0.839223   -0.634558   -1.458935
     18          1           0       -0.383052    2.934942   -0.580722
     19          1           0        2.045005    1.593634   -0.745941
     20          1           0        2.660873   -1.541326   -0.274675
     21          1           0        0.177811    2.043455    1.335308
 ---------------------------------------------------------------------
                    Distance matrix (angstroms):
                    1          2          3          4          5
     1  C    0.000000
     2  C    1.532747   0.000000
     3  C    2.303251   2.217384   0.000000
     4  C    3.446561   2.534116   2.511198   0.000000
     5  C    3.185480   2.849659   1.545445   1.537457   0.000000
     6  C    2.602958   1.565902   2.834240   1.540578   2.551103
     7  O    2.290612   1.444905   1.419035   2.569657   2.433289
     8  O    1.439950   2.331318   1.426324   3.329362   2.437266
     9  O    2.817529   2.510329   3.561737   2.377915   3.082013
    10  O    4.580392   3.795868   3.774314   1.420448   2.445762
    11  O    4.487694   4.072068   2.413320   2.433872   1.424645
    12  H    1.090625   2.206512   3.096354   3.730733   3.594475
    13  H    1.095823   2.176498   2.979331   4.427136   4.131862
    14  H    2.202483   1.090471   3.165904   3.360530   3.880032
    15  H    3.168716   3.178381   1.093177   3.360064   2.195974
    16  H    4.038123   2.856069   2.821289   1.093244   2.127429
    17  H    3.252859   3.330414   2.160437   2.171526   1.098702
    18  H    3.227054   2.910492   4.365447   3.183742   4.020938
    19  H    4.408410   3.844879   4.033078   1.918553   2.781450
    20  H    5.118774   4.617907   3.242829   2.511306   1.934109
    21  H    3.453343   2.191494   3.757417   2.155998   3.467503
                    6          7          8          9         10
     6  C    0.000000
     7  O    2.450391   0.000000
     8  O    3.142318   2.267769   0.000000
     9  O    1.432039   3.582797   3.391457   0.000000
    10  O    2.445315   3.989444   4.449065   2.677314   0.000000
    11  O    3.781074   3.276711   3.541065   4.407206   2.987379
    12  H    2.738894   3.237596   2.078893   2.380882   4.601386
    13  H    3.520049   2.751882   2.080200   3.805242   5.627175
    14  H    2.213572   2.055670   3.251008   3.170795   4.564901
    15  H    3.883182   2.053605   2.074019   4.642438   4.559298
    16  H    2.151335   2.526263   3.927453   3.304886   2.026960
    17  H    2.916262   3.240548   2.432008   2.911539   2.644557
    18  H    1.971494   4.182134   4.087068   0.969531   3.397572
    19  H    2.417119   4.324695   4.398037   2.102336   0.975883
    20  H    4.002408   4.005293   4.278356   4.499198   2.570248
    21  H    1.095138   3.065775   4.161132   2.070746   2.777904
                   11         12         13         14         15
    11  O    0.000000
    12  H    4.984365   0.000000
    13  H    5.334717   1.791313   0.000000
    14  H    5.017442   2.811431   2.404698   0.000000
    15  H    2.446401   4.024433   3.613018   4.000909   0.000000
    16  H    2.534192   4.516708   4.880944   3.465305   3.460984
    17  H    2.080793   3.367257   4.260715   4.413315   2.808551
    18  H    5.343929   2.649600   4.056756   3.276271   5.457969
    19  H    3.586962   4.201625   5.484605   4.628171   4.923190
    20  H    0.972510   5.476433   6.049364   5.552498   3.405580
    21  H    4.529079   3.573817   4.217095   2.349098   4.745887
                   16         17         18         19         20
    16  H    0.000000
    17  H    3.036642   0.000000
    18  H    3.985853   3.873828   0.000000
    19  H    2.785414   2.631940   2.778824   0.000000
    20  H    2.641405   2.354381   5.421819   3.229452   0.000000
    21  H    2.377114   3.926450   2.186433   2.832022   4.648473
                   21
    21  H    0.000000
 Stoichiometry    C6H10O5
 Framework group  C1[X(C6H10O5)]
 Deg. of freedom    57
 Full point group                 C1      NOp   1
 Largest Abelian subgroup         C1      NOp   1
 Largest concise Abelian subgroup C1      NOp   1
                         Standard orientation:                         
 ---------------------------------------------------------------------
 Center     Atomic      Atomic             Coordinates (Angstroms)
 Number     Number       Type             X           Y           Z
 ---------------------------------------------------------------------
      1          6           0       -2.137955    0.228910   -0.473072
      2          6           0       -1.321402    0.542519    0.785580
      3          6           0       -0.566833   -1.388067   -0.001981
      4          6           0        1.182488    0.358120    0.441667
      5          6           0        0.843547   -0.889599   -0.390253
      6          6           0       -0.001752    1.340778    0.514741
      7          8           0       -0.979640   -0.793023    1.218336
      8          8           0       -1.520708   -0.970569   -0.976772
      9          8           0       -0.006288    2.053705   -0.727213
     10          8           0        2.355997    0.999671   -0.036831
     11          8           0        1.781218   -1.930377   -0.131081
     12          1           0       -2.088216    1.013381   -1.229111
     13          1           0       -3.182712    0.021934   -0.215251
     14          1           0       -1.914152    1.002498    1.576905
     15          1           0       -0.591790   -2.475552    0.106599
     16          1           0        1.403827    0.010376    1.454221
     17          1           0        0.839223   -0.634557   -1.458935
     18          1           0       -0.383054    2.934942   -0.580722
     19          1           0        2.045004    1.593635   -0.745941
     20          1           0        2.660874   -1.541324   -0.274675
     21          1           0        0.177810    2.043455    1.335308
 ---------------------------------------------------------------------
 Rotational constants (GHZ):      1.5292406      1.2437367      0.8651204
 Standard basis: 6-31+G(d,p) (6D, 7F)
 There are   259 symmetry adapted basis functions of A   symmetry.
 Integral buffers will be    131072 words long.
 Raffenetti 2 integral format.
 Two-electron integral symmetry is turned on.
   259 basis functions,   422 primitive gaussians,   259 cartesian basis functions
    43 alpha electrons       43 beta electrons
       nuclear repulsion energy       724.6258259049 Hartrees.
 NAtoms=   21 NActive=   21 NUniq=   21 SFac= 1.00D+00 NAtFMM=   60 NAOKFM=F Big=F
 ------------------------------------------------------------------------------
 Polarizable Continuum Model (PCM)
 =================================
 Model                : C-PCM.
 Atomic radii         : SMD-Coulomb.
 Polarization charges : Total charges.
 Charge compensation  : None.
 Solution method      : Matrix inversion.
 Cavity type          : VdW (van der Waals Surface) (Alpha=1.000).
 Cavity algorithm     : GePol (No added spheres)
                        Default sphere list used, NSphG=   21.
                        Lebedev-Laikov grids with approx.  5.0 points / Ang**2.
                        Smoothing algorithm: Karplus/York (Gamma=1.0000).
                        Polarization charges: spherical gaussians, with
                                              point-specific exponents (IZeta= 3).
                        Self-potential: point-specific (ISelfS= 7).
                        Self-field    : sphere-specific E.n sum rule (ISelfD= 2).
 Solvent              : Water, Eps=  78.355300 Eps(inf)=   1.777849
 ------------------------------------------------------------------------------
 ------------------------------------------------------------------------------
 Atomic radii for non-electrostatic terms: SMD-CDS.
 ------------------------------------------------------------------------------
 Nuclear repulsion after PCM non-electrostatic terms =      724.6311524764 Hartrees.
 One-electron integrals computed using PRISM.
 NBasis=   259 RedAO= T  NBF=   259
 NBsUse=   259 1.00D-06 NBFU=   259
 Harris functional with IExCor=  402 diagonalized for initial guess.
 ExpMin= 4.38D-02 ExpMax= 5.48D+03 ExpMxC= 8.25D+02 IAcc=2 IRadAn=         4 AccDes= 0.00D+00
 HarFok:  IExCor=  402 AccDes= 0.00D+00 IRadAn=         4 IDoV= 1
 ScaDFX=  1.000000  1.000000  1.000000  1.000000
 FoFCou: FMM=F IPFlag=           0 FMFlag=      100000 FMFlg1=           0
         NFxFlg=           0 DoJE=T BraDBF=F KetDBF=T FulRan=T
         Omega=  0.000000  0.000000  1.000000  0.000000  0.000000 ICntrl=     500 IOpCl=  0
         NMat0=    1 NMatS0=    1 NMatT0=    0 NMatD0=    1 NMtDS0=    0 NMtDT0=    0
         I1Cent=           4 NGrid=           0.
 Petite list used in FoFCou.
 Initial guess orbital symmetries:
       Occupied  (A) (A) (A) (A) (A) (A) (A) (A) (A) (A) (A) (A)
                 (A) (A) (A) (A) (A) (A) (A) (A) (A) (A) (A) (A)
                 (A) (A) (A) (A) (A) (A) (A) (A) (A) (A) (A) (A)
                 (A) (A) (A) (A) (A) (A) (A)
       Virtual   (A) (A) (A) (A) (A) (A) (A) (A) (A) (A) (A) (A)
                 (A) (A) (A) (A) (A) (A) (A) (A) (A) (A) (A) (A)
                 (A) (A) (A) (A) (A) (A) (A) (A) (A) (A) (A) (A)
                 (A) (A) (A) (A) (A) (A) (A) (A) (A) (A) (A) (A)
                 (A) (A) (A) (A) (A) (A) (A) (A) (A) (A) (A) (A)
                 (A) (A) (A) (A) (A) (A) (A) (A) (A) (A) (A) (A)
                 (A) (A) (A) (A) (A) (A) (A) (A) (A) (A) (A) (A)
                 (A) (A) (A) (A) (A) (A) (A) (A) (A) (A) (A) (A)
                 (A) (A) (A) (A) (A) (A) (A) (A) (A) (A) (A) (A)
                 (A) (A) (A) (A) (A) (A) (A) (A) (A) (A) (A) (A)
                 (A) (A) (A) (A) (A) (A) (A) (A) (A) (A) (A) (A)
                 (A) (A) (A) (A) (A) (A) (A) (A) (A) (A) (A) (A)
                 (A) (A) (A) (A) (A) (A) (A) (A) (A) (A) (A) (A)
                 (A) (A) (A) (A) (A) (A) (A) (A) (A) (A) (A) (A)
                 (A) (A) (A) (A) (A) (A) (A) (A) (A) (A) (A) (A)
                 (A) (A) (A) (A) (A) (A) (A) (A) (A) (A) (A) (A)
                 (A) (A) (A) (A) (A) (A) (A) (A) (A) (A) (A) (A)
                 (A) (A) (A) (A) (A) (A) (A) (A) (A) (A) (A) (A)
 The electronic state of the initial guess is 1-A.
 Requested convergence on RMS density matrix=1.00D-08 within 128 cycles.
 Requested convergence on MAX density matrix=1.00D-06.
 Requested convergence on             energy=1.00D-06.
 No special actions if energy rises.
 Error on total polarization charges =  0.05722
 SCF Done:  E(RB3LYP) =  -610.801396985     A.U. after   12 cycles
             Convg  =    0.4241D-08             -V/T =  2.0090
 SMD-CDS (non-electrostatic) energy       (kcal/mol) =       3.34
 (included in total energy above)

 **********************************************************************

            Population analysis using the SCF density.

 **********************************************************************

 Orbital symmetries:
       Occupied  (A) (A) (A) (A) (A) (A) (A) (A) (A) (A) (A) (A)
                 (A) (A) (A) (A) (A) (A) (A) (A) (A) (A) (A) (A)
                 (A) (A) (A) (A) (A) (A) (A) (A) (A) (A) (A) (A)
                 (A) (A) (A) (A) (A) (A) (A)
       Virtual   (A) (A) (A) (A) (A) (A) (A) (A) (A) (A) (A) (A)
                 (A) (A) (A) (A) (A) (A) (A) (A) (A) (A) (A) (A)
                 (A) (A) (A) (A) (A) (A) (A) (A) (A) (A) (A) (A)
                 (A) (A) (A) (A) (A) (A) (A) (A) (A) (A) (A) (A)
                 (A) (A) (A) (A) (A) (A) (A) (A) (A) (A) (A) (A)
                 (A) (A) (A) (A) (A) (A) (A) (A) (A) (A) (A) (A)
                 (A) (A) (A) (A) (A) (A) (A) (A) (A) (A) (A) (A)
                 (A) (A) (A) (A) (A) (A) (A) (A) (A) (A) (A) (A)
                 (A) (A) (A) (A) (A) (A) (A) (A) (A) (A) (A) (A)
                 (A) (A) (A) (A) (A) (A) (A) (A) (A) (A) (A) (A)
                 (A) (A) (A) (A) (A) (A) (A) (A) (A) (A) (A) (A)
                 (A) (A) (A) (A) (A) (A) (A) (A) (A) (A) (A) (A)
                 (A) (A) (A) (A) (A) (A) (A) (A) (A) (A) (A) (A)
                 (A) (A) (A) (A) (A) (A) (A) (A) (A) (A) (A) (A)
                 (A) (A) (A) (A) (A) (A) (A) (A) (A) (A) (A) (A)
                 (A) (A) (A) (A) (A) (A) (A) (A) (A) (A) (A) (A)
                 (A) (A) (A) (A) (A) (A) (A) (A) (A) (A) (A) (A)
                 (A) (A) (A) (A) (A) (A) (A) (A) (A) (A) (A) (A)
 The electronic state is 1-A.
 Alpha  occ. eigenvalues --  -19.18317 -19.17353 -19.17349 -19.16961 -19.16818
 Alpha  occ. eigenvalues --  -10.29409 -10.25058 -10.25031 -10.24287 -10.24108
 Alpha  occ. eigenvalues --  -10.23623  -1.10997  -1.05432  -1.03752  -1.02130
 Alpha  occ. eigenvalues --   -1.01087  -0.78845  -0.77965  -0.68057  -0.65667
 Alpha  occ. eigenvalues --   -0.61877  -0.58505  -0.55896  -0.53336  -0.50701
 Alpha  occ. eigenvalues --   -0.50144  -0.49591  -0.48042  -0.44392  -0.43984
 Alpha  occ. eigenvalues --   -0.42524  -0.41508  -0.40511  -0.39023  -0.37116
 Alpha  occ. eigenvalues --   -0.35812  -0.34900  -0.34012  -0.32651  -0.30864
 Alpha  occ. eigenvalues --   -0.28668  -0.27486  -0.26273
 Alpha virt. eigenvalues --    0.00267   0.01555   0.02198   0.02738   0.04202
 Alpha virt. eigenvalues --    0.04908   0.04970   0.05533   0.05817   0.08290
 Alpha virt. eigenvalues --    0.08459   0.09163   0.10008   0.10605   0.11482
 Alpha virt. eigenvalues --    0.12479   0.12756   0.13458   0.14021   0.14888
 Alpha virt. eigenvalues --    0.15324   0.15388   0.16066   0.16612   0.17146
 Alpha virt. eigenvalues --    0.18064   0.18818   0.19138   0.19897   0.20984
 Alpha virt. eigenvalues --    0.21519   0.22276   0.22540   0.23000   0.23789
 Alpha virt. eigenvalues --    0.24414   0.25548   0.25856   0.26441   0.27106
 Alpha virt. eigenvalues --    0.27690   0.28519   0.29395   0.29514   0.29945
 Alpha virt. eigenvalues --    0.30330   0.30884   0.31345   0.31906   0.33665
 Alpha virt. eigenvalues --    0.34710   0.35032   0.35444   0.35687   0.35739
 Alpha virt. eigenvalues --    0.37149   0.37994   0.38526   0.38983   0.40427
 Alpha virt. eigenvalues --    0.41353   0.42596   0.43153   0.44123   0.44688
 Alpha virt. eigenvalues --    0.45985   0.64479   0.66568   0.67505   0.69648
 Alpha virt. eigenvalues --    0.71711   0.73799   0.74470   0.76687   0.77298
 Alpha virt. eigenvalues --    0.78307   0.80382   0.81426   0.82539   0.83492
 Alpha virt. eigenvalues --    0.86106   0.91141   0.92166   0.94125   0.97325
 Alpha virt. eigenvalues --    0.99056   1.01861   1.03507   1.04706   1.05354
 Alpha virt. eigenvalues --    1.06753   1.08018   1.09288   1.11272   1.12642
 Alpha virt. eigenvalues --    1.17093   1.21465   1.22632   1.24451   1.27286
 Alpha virt. eigenvalues --    1.28484   1.29495   1.30520   1.32060   1.32255
 Alpha virt. eigenvalues --    1.34908   1.36600   1.36805   1.38576   1.40214
 Alpha virt. eigenvalues --    1.41690   1.42987   1.45568   1.47909   1.50140
 Alpha virt. eigenvalues --    1.51363   1.54560   1.56284   1.58117   1.61365
 Alpha virt. eigenvalues --    1.61897   1.62523   1.64108   1.66959   1.70211
 Alpha virt. eigenvalues --    1.72150   1.74087   1.75878   1.77211   1.78469
 Alpha virt. eigenvalues --    1.78643   1.81878   1.82755   1.83834   1.86383
 Alpha virt. eigenvalues --    1.89737   1.92114   1.95580   1.95946   1.96765
 Alpha virt. eigenvalues --    1.99087   1.99828   2.03263   2.04352   2.07605
 Alpha virt. eigenvalues --    2.08920   2.10911   2.13639   2.14065   2.15872
 Alpha virt. eigenvalues --    2.18495   2.21640   2.22745   2.30374   2.31824
 Alpha virt. eigenvalues --    2.34040   2.35551   2.39489   2.40200   2.41130
 Alpha virt. eigenvalues --    2.44676   2.46490   2.47961   2.49949   2.51527
 Alpha virt. eigenvalues --    2.55932   2.58096   2.59685   2.61781   2.63298
 Alpha virt. eigenvalues --    2.63942   2.66160   2.67716   2.68816   2.69539
 Alpha virt. eigenvalues --    2.71320   2.73282   2.74887   2.78776   2.79092
 Alpha virt. eigenvalues --    2.81592   2.83387   2.85497   2.88921   2.92062
 Alpha virt. eigenvalues --    2.93815   2.97450   2.99264   3.01465   3.01528
 Alpha virt. eigenvalues --    3.06726   3.08672   3.09873   3.11481   3.26319
 Alpha virt. eigenvalues --    3.34954   3.39109   3.40229   3.43980   3.48685
 Alpha virt. eigenvalues --    3.50203   3.52701   3.54557   3.55935   3.59221
 Alpha virt. eigenvalues --    4.28064   4.33092   4.36261   4.45120   4.47913
 Alpha virt. eigenvalues --    4.57736   4.59661   4.74240   4.79137   4.97363
 Alpha virt. eigenvalues --    5.00233
          Condensed to atoms (all electrons):
              1          2          3          4          5          6
     1  C    5.462173   0.117315  -0.301020   0.143213   0.020893  -0.363946
     2  C    0.117315   6.317410  -0.460973  -0.246089   0.180089  -0.101470
     3  C   -0.301020  -0.460973   6.028038  -0.114898  -0.241481   0.246439
     4  C    0.143213  -0.246089  -0.114898   6.159320  -0.109253  -0.287310
     5  C    0.020893   0.180089  -0.241481  -0.109253   6.021320  -0.163275
     6  C   -0.363946  -0.101470   0.246439  -0.287310  -0.163275   6.280698
     7  O   -0.029312   0.068972   0.251160   0.050438  -0.113188  -0.165828
     8  O    0.152557  -0.151050   0.321058  -0.026034  -0.131123   0.081253
     9  O    0.044058  -0.111702  -0.019781  -0.101172   0.039316   0.114558
    10  O    0.000174   0.009348   0.020062   0.257059  -0.106712  -0.060163
    11  O    0.008147  -0.001036  -0.174036  -0.111880   0.301852   0.032721
    12  H    0.471939  -0.136331   0.022411   0.008992  -0.000608  -0.006607
    13  H    0.386784  -0.006421  -0.027170  -0.006564   0.005723   0.027103
    14  H   -0.018514   0.329322   0.021361  -0.005559  -0.004829   0.016705
    15  H    0.014504   0.010908   0.380213  -0.003102  -0.045305   0.009516
    16  H    0.007781  -0.018790  -0.002329   0.506469  -0.114017  -0.055989
    17  H    0.011558  -0.010214  -0.083296  -0.045994   0.411888   0.011978
    18  H   -0.005523  -0.018944   0.001122   0.016402  -0.002747   0.019694
    19  H    0.002579   0.006870   0.001325   0.062110  -0.042404  -0.059447
    20  H   -0.001750  -0.003179   0.034996  -0.025828  -0.019261   0.014613
    21  H    0.013440  -0.040211  -0.010968  -0.022732   0.023000   0.357244
              7          8          9         10         11         12
     1  C   -0.029312   0.152557   0.044058   0.000174   0.008147   0.471939
     2  C    0.068972  -0.151050  -0.111702   0.009348  -0.001036  -0.136331
     3  C    0.251160   0.321058  -0.019781   0.020062  -0.174036   0.022411
     4  C    0.050438  -0.026034  -0.101172   0.257059  -0.111880   0.008992
     5  C   -0.113188  -0.131123   0.039316  -0.106712   0.301852  -0.000608
     6  C   -0.165828   0.081253   0.114558  -0.060163   0.032721  -0.006607
     7  O    8.428959  -0.070684   0.021338  -0.002093   0.014592   0.010593
     8  O   -0.070684   8.412095  -0.005131  -0.001961   0.006115  -0.045330
     9  O    0.021338  -0.005131   8.449146  -0.015712  -0.000489   0.003761
    10  O   -0.002093  -0.001961  -0.015712   8.324277  -0.016756   0.000005
    11  O    0.014592   0.006115  -0.000489  -0.016756   8.340384  -0.000019
    12  H    0.010593  -0.045330   0.003761   0.000005  -0.000019   0.533707
    13  H   -0.004041  -0.051035  -0.001819   0.000004   0.000058  -0.040303
    14  H   -0.034405   0.007494   0.001865  -0.000146   0.000154   0.002518
    15  H   -0.040046  -0.043550   0.000297  -0.000487   0.003014  -0.000267
    16  H    0.007436  -0.000148   0.008514  -0.063316   0.001175   0.000001
    17  H    0.011311  -0.004436   0.004398  -0.000495  -0.042444  -0.000008
    18  H   -0.000592   0.000688   0.251399  -0.001434   0.000002  -0.000887
    19  H    0.000566  -0.000260   0.024762   0.252900   0.000911   0.000002
    20  H   -0.001709  -0.000367  -0.000278   0.012096   0.242066   0.000000
    21  H    0.006812  -0.000887  -0.037216   0.005166  -0.000782   0.000092
             13         14         15         16         17         18
     1  C    0.386784  -0.018514   0.014504   0.007781   0.011558  -0.005523
     2  C   -0.006421   0.329322   0.010908  -0.018790  -0.010214  -0.018944
     3  C   -0.027170   0.021361   0.380213  -0.002329  -0.083296   0.001122
     4  C   -0.006564  -0.005559  -0.003102   0.506469  -0.045994   0.016402
     5  C    0.005723  -0.004829  -0.045305  -0.114017   0.411888  -0.002747
     6  C    0.027103   0.016705   0.009516  -0.055989   0.011978   0.019694
     7  O   -0.004041  -0.034405  -0.040046   0.007436   0.011311  -0.000592
     8  O   -0.051035   0.007494  -0.043550  -0.000148  -0.004436   0.000688
     9  O   -0.001819   0.001865   0.000297   0.008514   0.004398   0.251399
    10  O    0.000004  -0.000146  -0.000487  -0.063316  -0.000495  -0.001434
    11  O    0.000058   0.000154   0.003014   0.001175  -0.042444   0.000002
    12  H   -0.040303   0.002518  -0.000267   0.000001  -0.000008  -0.000887
    13  H    0.559448  -0.004471   0.000402   0.000000  -0.000041   0.000022
    14  H   -0.004471   0.514314  -0.000087   0.000080   0.000027   0.000534
    15  H    0.000402  -0.000087   0.539958  -0.000138   0.000806   0.000001
    16  H    0.000000   0.000080  -0.000138   0.536105   0.004186  -0.000178
    17  H   -0.000041   0.000027   0.000806   0.004186   0.560976  -0.000007
    18  H    0.000022   0.000534   0.000001  -0.000178  -0.000007   0.319521
    19  H    0.000000  -0.000017  -0.000004   0.006144   0.001482  -0.000932
    20  H    0.000000  -0.000001   0.000001  -0.001051  -0.004671   0.000000
    21  H   -0.000086  -0.007299   0.000007  -0.006731  -0.000146  -0.009310
             19         20         21
     1  C    0.002579  -0.001750   0.013440
     2  C    0.006870  -0.003179  -0.040211
     3  C    0.001325   0.034996  -0.010968
     4  C    0.062110  -0.025828  -0.022732
     5  C   -0.042404  -0.019261   0.023000
     6  C   -0.059447   0.014613   0.357244
     7  O    0.000566  -0.001709   0.006812
     8  O   -0.000260  -0.000367  -0.000887
     9  O    0.024762  -0.000278  -0.037216
    10  O    0.252900   0.012096   0.005166
    11  O    0.000911   0.242066  -0.000782
    12  H    0.000002   0.000000   0.000092
    13  H    0.000000   0.000000  -0.000086
    14  H   -0.000017  -0.000001  -0.007299
    15  H   -0.000004   0.000001   0.000007
    16  H    0.006144  -0.001051  -0.006731
    17  H    0.001482  -0.004671  -0.000146
    18  H   -0.000932   0.000000  -0.009310
    19  H    0.338503  -0.000043  -0.000774
    20  H   -0.000043   0.349625   0.000000
    21  H   -0.000774   0.000000   0.559726
 Mulliken atomic charges:
              1
     1  C   -0.137050
     2  C    0.266175
     3  C    0.107768
     4  C   -0.097586
     5  C    0.090122
     6  C    0.051513
     7  O   -0.410279
     8  O   -0.449267
     9  O   -0.670110
    10  O   -0.611815
    11  O   -0.603752
    12  H    0.176337
    13  H    0.162407
    14  H    0.180954
    15  H    0.173359
    16  H    0.184796
    17  H    0.173140
    18  H    0.431168
    19  H    0.405725
    20  H    0.404741
    21  H    0.171653
 Sum of Mulliken atomic charges =   0.00000
 Mulliken charges with hydrogens summed into heavy atoms:
              1
     1  C    0.201694
     2  C    0.447129
     3  C    0.281127
     4  C    0.087210
     5  C    0.263263
     6  C    0.223166
     7  O   -0.410279
     8  O   -0.449267
     9  O   -0.238942
    10  O   -0.206090
    11  O   -0.199012
 Sum of Mulliken charges with hydrogens summed into heavy atoms =   0.00000
 Electronic spatial extent (au):  <R**2>=           1448.3238
 Charge=              0.0000 electrons
 Dipole moment (field-independent basis, Debye):
    X=             -2.2734    Y=              6.2133    Z=              0.6451  Tot=              6.6475
 Quadrupole moment (field-independent basis, Debye-Ang):
   XX=            -66.1046   YY=            -60.3068   ZZ=            -68.1818
   XY=             -6.7604   XZ=             -4.1210   YZ=              1.3667
 Traceless Quadrupole moment (field-independent basis, Debye-Ang):
   XX=             -1.2402   YY=              4.5576   ZZ=             -3.3174
   XY=             -6.7604   XZ=             -4.1210   YZ=              1.3667
 Octapole moment (field-independent basis, Debye-Ang**2):
  XXX=            -12.7466  YYY=             51.0332  ZZZ=             -0.0775  XYY=            -14.0822
  XXY=              3.3275  XXZ=             -4.8061  XZZ=              8.8602  YZZ=             11.2284
  YYZ=             -0.9760  XYZ=             -1.2372
 Hexadecapole moment (field-independent basis, Debye-Ang**3):
 XXXX=           -844.3451 YYYY=           -572.3362 ZZZZ=           -262.4388 XXXY=            -63.4861
 XXXZ=            -27.7008 YYYX=             11.6091 YYYZ=            -20.0596 ZZZX=             -6.4396
 ZZZY=              3.2442 XXYY=           -267.7110 XXZZ=           -185.7995 YYZZ=           -157.9674
 XXYZ=            -11.1114 YYXZ=             -9.4604 ZZXY=             -9.7605
 N-N= 7.246311524764D+02 E-N=-2.879473677358D+03  KE= 6.053476912662D+02

 Test job not archived.
 1\1\GINC-COMPUTE-10-4\SP\RB3LYP\6-31+G(d,p)\C6H10O5\ASAROTTI.IQUIR\15-
 Apr-2019\0\\# B3LYP/6-31+G** test scrf=(pcm,solvent=water,smd,dovacuum
 )\\comment\\0,1\C,0,-2.137955,0.228911,-0.473072\C,0,-1.321402,0.54252
 ,0.78558\C,0,-0.566834,-1.388067,-0.001981\C,0,1.182488,0.358119,0.441
 667\C,0,0.843547,-0.8896,-0.390253\C,0,-0.001751,1.340778,0.514741\O,0
 ,-0.97964,-0.793022,1.218336\O,0,-1.520709,-0.970568,-0.976772\O,0,-0.
 006287,2.053705,-0.727213\O,0,2.355998,0.999669,-0.036831\O,0,1.781217
 ,-1.930378,-0.131081\H,0,-2.088215,1.013382,-1.229111\H,0,-3.182712,0.
 021936,-0.215251\H,0,-1.914151,1.002499,1.576905\H,0,-0.591792,-2.4755
 52,0.106599\H,0,1.403827,0.010375,1.454221\H,0,0.839223,-0.634558,-1.4
 58935\H,0,-0.383052,2.934942,-0.580722\H,0,2.045005,1.593634,-0.745941
 \H,0,2.660873,-1.541326,-0.274675\H,0,0.177811,2.043455,1.335308\\Vers
 ion=EM64L-G09RevC.01\State=1-A\HF=-610.801397\RMSD=4.241e-09\Dipole=-0
 .8944063,2.4445052,0.2538046\Quadrupole=-0.9220843,3.3884838,-2.466399
 5,-5.0262001,-3.0638689,1.0161386\PG=C01 [X(C6H10O5)]\\@


 A successful marriage requires falling in love
 many times, always with the same person.
                           -- Mignon McLaughlin
 Job cpu time:  0 days  0 hours  5 minutes  3.4 seconds.
 File lengths (MBytes):  RWF=     56 Int=      0 D2E=      0 Chk=      4 Scr=      1
 Normal termination of Gaussian 09 at Mon Apr 15 18:03:11 2019.
