 Entering Gaussian System, Link 0=g09
 Input=/home/asarotti.iquir/SCF3/02_RSS_Levo15_OPTB_energy_b3lyp_smd.gjc
 Output=/home/asarotti.iquir/SCF3/02_RSS_Levo15_OPTB_energy_b3lyp_smd.log
 Initial command:
 /share/apps/Gaussian09/EM64T.SSE4.2-enabled/g09/l1.exe /tmp/Gau-23265.inp -scrdir=/tmp/
 Entering Link 1 = /share/apps/Gaussian09/EM64T.SSE4.2-enabled/g09/l1.exe PID=     23266.
  
 Copyright (c) 1988,1990,1992,1993,1995,1998,2003,2009,2011,
            Gaussian, Inc.  All Rights Reserved.
  
 This is part of the Gaussian(R) 09 program.  It is based on
 the Gaussian(R) 03 system (copyright 2003, Gaussian, Inc.),
 the Gaussian(R) 98 system (copyright 1998, Gaussian, Inc.),
 the Gaussian(R) 94 system (copyright 1995, Gaussian, Inc.),
 the Gaussian 92(TM) system (copyright 1992, Gaussian, Inc.),
 the Gaussian 90(TM) system (copyright 1990, Gaussian, Inc.),
 the Gaussian 88(TM) system (copyright 1988, Gaussian, Inc.),
 the Gaussian 86(TM) system (copyright 1986, Carnegie Mellon
 University), and the Gaussian 82(TM) system (copyright 1983,
 Carnegie Mellon University). Gaussian is a federally registered
 trademark of Gaussian, Inc.
  
 This software contains proprietary and confidential information,
 including trade secrets, belonging to Gaussian, Inc.
  
 This software is provided under written license and may be
 used, copied, transmitted, or stored only in accord with that
 written license.
  
 The following legend is applicable only to US Government
 contracts under FAR:
  
                    RESTRICTED RIGHTS LEGEND
  
 Use, reproduction and disclosure by the US Government is
 subject to restrictions as set forth in subparagraphs (a)
 and (c) of the Commercial Computer Software - Restricted
 Rights clause in FAR 52.227-19.
  
 Gaussian, Inc.
 340 Quinnipiac St., Bldg. 40, Wallingford CT 06492
  
  
 ---------------------------------------------------------------
 Warning -- This program may not be used in any manner that
 competes with the business of Gaussian, Inc. or will provide
 assistance to any competitor of Gaussian, Inc.  The licensee
 of this program is prohibited from giving any competitor of
 Gaussian, Inc. access to this program.  By using this program,
 the user acknowledges that Gaussian, Inc. is engaged in the
 business of creating and licensing software in the field of
 computational chemistry and represents and warrants to the
 licensee that it is not a competitor of Gaussian, Inc. and that
 it will not use this program in any manner prohibited above.
 ---------------------------------------------------------------
  

 Cite this work as:
 Gaussian 09, Revision C.01,
 M. J. Frisch, G. W. Trucks, H. B. Schlegel, G. E. Scuseria, 
 M. A. Robb, J. R. Cheeseman, G. Scalmani, V. Barone, B. Mennucci, 
 G. A. Petersson, H. Nakatsuji, M. Caricato, X. Li, H. P. Hratchian, 
 A. F. Izmaylov, J. Bloino, G. Zheng, J. L. Sonnenberg, M. Hada, 
 M. Ehara, K. Toyota, R. Fukuda, J. Hasegawa, M. Ishida, T. Nakajima, 
 Y. Honda, O. Kitao, H. Nakai, T. Vreven, J. A. Montgomery, Jr., 
 J. E. Peralta, F. Ogliaro, M. Bearpark, J. J. Heyd, E. Brothers, 
 K. N. Kudin, V. N. Staroverov, T. Keith, R. Kobayashi, J. Normand, 
 K. Raghavachari, A. Rendell, J. C. Burant, S. S. Iyengar, J. Tomasi, 
 M. Cossi, N. Rega, J. M. Millam, M. Klene, J. E. Knox, J. B. Cross, 
 V. Bakken, C. Adamo, J. Jaramillo, R. Gomperts, R. E. Stratmann, 
 O. Yazyev, A. J. Austin, R. Cammi, C. Pomelli, J. W. Ochterski, 
 R. L. Martin, K. Morokuma, V. G. Zakrzewski, G. A. Voth, 
 P. Salvador, J. J. Dannenberg, S. Dapprich, A. D. Daniels, 
 O. Farkas, J. B. Foresman, J. V. Ortiz, J. Cioslowski, 
 and D. J. Fox, Gaussian, Inc., Wallingford CT, 2010.
 
 ******************************************
 Gaussian 09:  EM64L-G09RevC.01 23-Sep-2011
                15-Apr-2019 
 ******************************************
 %nprocshared=4
 Will use up to    4 processors via shared memory.
 -----------------------------------------------------------
 # B3LYP/6-31+G** test scrf=(pcm,solvent=water,smd,dovacuum)
 -----------------------------------------------------------
 1/38=1/1;
 2/12=2,17=6,18=5,40=1/2;
 3/5=1,6=6,7=111,11=2,16=1,25=1,30=1,70=32101,72=1,74=-5/1,2,3;
 4//1;
 5/5=2,38=5,53=1/2;
 6/7=2,8=2,9=2,10=2,28=1/1;
 99/5=1,9=1/99;
 -------
 comment
 -------
 Charge =  0 Multiplicity = 1
 Symbolic Z-Matrix:
 6                    -0.66513   1.73114   0.55647 
 6                    -0.62606   1.03807  -0.81509 
 6                     1.36448   0.74738   0.11841 
 6                    -0.20543  -1.26052   0.22805 
 6                     1.2582   -0.76811   0.34443 
 6                    -1.02256  -0.44432  -0.81183 
 8                     0.77745   1.09464  -1.12424 
 8                     0.63741   1.45944   1.10906 
 8                    -2.41934  -0.53834  -0.51129 
 8                    -0.82129  -1.16893   1.50672 
 8                     2.0883   -1.36719  -0.64711 
 1                    -1.43838   1.33793   1.21863 
 1                    -0.78752   2.81436   0.44898 
 1                    -1.17581   1.58022  -1.58676 
 1                     2.40817   1.07272   0.113 
 1                    -0.17834  -2.31417  -0.09654 
 1                     1.61477  -0.99987   1.35726 
 1                    -2.76766  -1.34373  -0.92689 
 1                    -1.777    -1.11231   1.31404 
 1                     2.19558  -2.30308  -0.41413 
 1                    -0.81522  -0.8309   -1.81536 
 
                          Input orientation:                          
 ---------------------------------------------------------------------
 Center     Atomic      Atomic             Coordinates (Angstroms)
 Number     Number       Type             X           Y           Z
 ---------------------------------------------------------------------
      1          6           0       -0.665127    1.731138    0.556473
      2          6           0       -0.626056    1.038065   -0.815088
      3          6           0        1.364475    0.747379    0.118408
      4          6           0       -0.205431   -1.260515    0.228051
      5          6           0        1.258203   -0.768105    0.344431
      6          6           0       -1.022555   -0.444318   -0.811832
      7          8           0        0.777454    1.094639   -1.124239
      8          8           0        0.637413    1.459440    1.109055
      9          8           0       -2.419337   -0.538336   -0.511291
     10          8           0       -0.821287   -1.168932    1.506724
     11          8           0        2.088300   -1.367189   -0.647111
     12          1           0       -1.438377    1.337926    1.218633
     13          1           0       -0.787521    2.814360    0.448978
     14          1           0       -1.175807    1.580217   -1.586758
     15          1           0        2.408175    1.072720    0.113004
     16          1           0       -0.178337   -2.314172   -0.096536
     17          1           0        1.614771   -0.999872    1.357255
     18          1           0       -2.767662   -1.343731   -0.926894
     19          1           0       -1.776997   -1.112305    1.314044
     20          1           0        2.195575   -2.303083   -0.414128
     21          1           0       -0.815221   -0.830899   -1.815355
 ---------------------------------------------------------------------
                    Distance matrix (angstroms):
                    1          2          3          4          5
     1  C    0.000000
     2  C    1.537224   0.000000
     3  C    2.297600   2.217685   0.000000
     4  C    3.044531   2.559010   2.551130   0.000000
     5  C    3.160756   2.856075   1.535927   1.548624   0.000000
     6  C    2.594730   1.534497   2.825491   1.554100   2.577526
     7  O    2.304553   1.438268   1.417517   2.888166   2.420315
     8  O    1.440756   2.340136   1.420222   2.980723   2.435567
     9  O    3.060700   2.406905   4.045592   2.443266   3.782771
    10  O    3.055776   3.209324   3.221370   1.422206   2.415754
    11  O    4.316203   3.630591   2.362486   2.457334   1.425173
    12  H    1.091324   2.210385   3.068423   3.041924   3.531450
    13  H    1.095402   2.186128   3.002128   4.122165   4.126739
    14  H    2.208395   1.091618   3.170843   3.507837   3.894677
    15  H    3.174171   3.173187   1.093245   3.505447   2.182803
    16  H    4.126490   3.457494   3.435049   1.102853   2.156020
    17  H    3.646588   3.727408   2.156450   2.157816   1.098485
    18  H    4.009470   3.204985   4.747626   2.811734   4.260892
    19  H    3.145685   3.237585   3.841460   1.916029   3.204850
    20  H    5.039903   4.391542   3.206188   2.695213   1.951982
    21  H    3.494586   2.128226   3.313831   2.175298   2.994613
                    6          7          8          9         10
     6  C    0.000000
     7  O    2.388728   0.000000
     8  O    3.173263   2.267222   0.000000
     9  O    1.431839   3.641673   3.995041   0.000000
    10  O    2.437473   3.821216   3.032208   2.650245   0.000000
    11  O    3.249037   2.829588   3.630292   4.585219   3.625467
    12  H    2.733512   3.233906   2.082229   2.734096   2.597717
    13  H    3.501980   2.807419   2.074113   3.850391   4.121478
    14  H    2.173186   2.065173   3.251117   2.681653   4.153689
    15  H    3.863500   2.047071   2.068156   5.127389   4.170957
    16  H    2.172719   3.686421   4.044632   2.889238   2.072535
    17  H    3.459634   3.353489   2.658016   4.469732   2.446487
    18  H    1.966617   4.307254   4.857715   0.970936   3.121126
    19  H    2.352602   4.164258   3.533450   2.018388   0.976583
    20  H    3.737584   3.749645   4.347935   4.941780   3.751990
    21  H    1.095213   2.592673   3.988480   2.087909   3.339238
                   11         12         13         14         15
    11  O    0.000000
    12  H    4.820384   0.000000
    13  H    5.192024   1.787691   0.000000
    14  H    4.497169   2.828050   2.412073   0.000000
    15  H    2.575510   4.011074   3.654950   3.998959   0.000000
    16  H    2.517450   4.081077   5.193316   4.287420   4.266730
    17  H    2.092041   3.847886   4.598297   4.807431   2.544266
    18  H    4.864072   3.682604   4.806631   3.393950   5.806024
    19  H    4.341845   2.475358   4.140785   4.003218   4.871601
    20  H    0.970405   5.397079   5.985987   5.274590   3.423319
    21  H    3.175348   3.781165   4.291373   2.448624   4.211011
                   16         17         18         19         20
    16  H    0.000000
    17  H    2.656338   0.000000
    18  H    2.887188   4.953917   0.000000
    19  H    2.447434   3.393906   2.461052   0.000000
    20  H    2.395088   2.274531   5.081044   4.492868   0.000000
    21  H    2.357978   3.999858   2.205535   3.285931   3.632582
                   21
    21  H    0.000000
 Stoichiometry    C6H10O5
 Framework group  C1[X(C6H10O5)]
 Deg. of freedom    57
 Full point group                 C1      NOp   1
 Largest Abelian subgroup         C1      NOp   1
 Largest concise Abelian subgroup C1      NOp   1
                         Standard orientation:                         
 ---------------------------------------------------------------------
 Center     Atomic      Atomic             Coordinates (Angstroms)
 Number     Number       Type             X           Y           Z
 ---------------------------------------------------------------------
      1          6           0       -0.665127    1.731138    0.556473
      2          6           0       -0.626056    1.038065   -0.815088
      3          6           0        1.364475    0.747379    0.118408
      4          6           0       -0.205431   -1.260515    0.228051
      5          6           0        1.258203   -0.768105    0.344431
      6          6           0       -1.022555   -0.444318   -0.811832
      7          8           0        0.777454    1.094639   -1.124239
      8          8           0        0.637413    1.459440    1.109055
      9          8           0       -2.419337   -0.538336   -0.511291
     10          8           0       -0.821287   -1.168932    1.506724
     11          8           0        2.088300   -1.367189   -0.647111
     12          1           0       -1.438377    1.337926    1.218633
     13          1           0       -0.787521    2.814360    0.448978
     14          1           0       -1.175807    1.580217   -1.586758
     15          1           0        2.408175    1.072720    0.113004
     16          1           0       -0.178337   -2.314172   -0.096536
     17          1           0        1.614771   -0.999872    1.357255
     18          1           0       -2.767662   -1.343731   -0.926894
     19          1           0       -1.776997   -1.112305    1.314044
     20          1           0        2.195575   -2.303083   -0.414128
     21          1           0       -0.815221   -0.830899   -1.815355
 ---------------------------------------------------------------------
 Rotational constants (GHZ):      1.4709907      1.2478855      0.9978034
 Standard basis: 6-31+G(d,p) (6D, 7F)
 There are   259 symmetry adapted basis functions of A   symmetry.
 Integral buffers will be    131072 words long.
 Raffenetti 2 integral format.
 Two-electron integral symmetry is turned on.
   259 basis functions,   422 primitive gaussians,   259 cartesian basis functions
    43 alpha electrons       43 beta electrons
       nuclear repulsion energy       731.3804536732 Hartrees.
 NAtoms=   21 NActive=   21 NUniq=   21 SFac= 1.00D+00 NAtFMM=   60 NAOKFM=F Big=F
 ------------------------------------------------------------------------------
 Polarizable Continuum Model (PCM)
 =================================
 Model                : C-PCM.
 Atomic radii         : SMD-Coulomb.
 Polarization charges : Total charges.
 Charge compensation  : None.
 Solution method      : Matrix inversion.
 Cavity type          : VdW (van der Waals Surface) (Alpha=1.000).
 Cavity algorithm     : GePol (No added spheres)
                        Default sphere list used, NSphG=   21.
                        Lebedev-Laikov grids with approx.  5.0 points / Ang**2.
                        Smoothing algorithm: Karplus/York (Gamma=1.0000).
                        Polarization charges: spherical gaussians, with
                                              point-specific exponents (IZeta= 3).
                        Self-potential: point-specific (ISelfS= 7).
                        Self-field    : sphere-specific E.n sum rule (ISelfD= 2).
 Solvent              : Water, Eps=  78.355300 Eps(inf)=   1.777849
 ------------------------------------------------------------------------------
 ------------------------------------------------------------------------------
 Atomic radii for non-electrostatic terms: SMD-CDS.
 ------------------------------------------------------------------------------
 Nuclear repulsion after PCM non-electrostatic terms =      731.3855924174 Hartrees.
 One-electron integrals computed using PRISM.
 NBasis=   259 RedAO= T  NBF=   259
 NBsUse=   259 1.00D-06 NBFU=   259
 Harris functional with IExCor=  402 diagonalized for initial guess.
 ExpMin= 4.38D-02 ExpMax= 5.48D+03 ExpMxC= 8.25D+02 IAcc=2 IRadAn=         4 AccDes= 0.00D+00
 HarFok:  IExCor=  402 AccDes= 0.00D+00 IRadAn=         4 IDoV= 1
 ScaDFX=  1.000000  1.000000  1.000000  1.000000
 FoFCou: FMM=F IPFlag=           0 FMFlag=      100000 FMFlg1=           0
         NFxFlg=           0 DoJE=T BraDBF=F KetDBF=T FulRan=T
         Omega=  0.000000  0.000000  1.000000  0.000000  0.000000 ICntrl=     500 IOpCl=  0
         NMat0=    1 NMatS0=    1 NMatT0=    0 NMatD0=    1 NMtDS0=    0 NMtDT0=    0
         I1Cent=           4 NGrid=           0.
 Petite list used in FoFCou.
 Initial guess orbital symmetries:
       Occupied  (A) (A) (A) (A) (A) (A) (A) (A) (A) (A) (A) (A)
                 (A) (A) (A) (A) (A) (A) (A) (A) (A) (A) (A) (A)
                 (A) (A) (A) (A) (A) (A) (A) (A) (A) (A) (A) (A)
                 (A) (A) (A) (A) (A) (A) (A)
       Virtual   (A) (A) (A) (A) (A) (A) (A) (A) (A) (A) (A) (A)
                 (A) (A) (A) (A) (A) (A) (A) (A) (A) (A) (A) (A)
                 (A) (A) (A) (A) (A) (A) (A) (A) (A) (A) (A) (A)
                 (A) (A) (A) (A) (A) (A) (A) (A) (A) (A) (A) (A)
                 (A) (A) (A) (A) (A) (A) (A) (A) (A) (A) (A) (A)
                 (A) (A) (A) (A) (A) (A) (A) (A) (A) (A) (A) (A)
                 (A) (A) (A) (A) (A) (A) (A) (A) (A) (A) (A) (A)
                 (A) (A) (A) (A) (A) (A) (A) (A) (A) (A) (A) (A)
                 (A) (A) (A) (A) (A) (A) (A) (A) (A) (A) (A) (A)
                 (A) (A) (A) (A) (A) (A) (A) (A) (A) (A) (A) (A)
                 (A) (A) (A) (A) (A) (A) (A) (A) (A) (A) (A) (A)
                 (A) (A) (A) (A) (A) (A) (A) (A) (A) (A) (A) (A)
                 (A) (A) (A) (A) (A) (A) (A) (A) (A) (A) (A) (A)
                 (A) (A) (A) (A) (A) (A) (A) (A) (A) (A) (A) (A)
                 (A) (A) (A) (A) (A) (A) (A) (A) (A) (A) (A) (A)
                 (A) (A) (A) (A) (A) (A) (A) (A) (A) (A) (A) (A)
                 (A) (A) (A) (A) (A) (A) (A) (A) (A) (A) (A) (A)
                 (A) (A) (A) (A) (A) (A) (A) (A) (A) (A) (A) (A)
 The electronic state of the initial guess is 1-A.
 Requested convergence on RMS density matrix=1.00D-08 within 128 cycles.
 Requested convergence on MAX density matrix=1.00D-06.
 Requested convergence on             energy=1.00D-06.
 No special actions if energy rises.
 Error on total polarization charges =  0.05669
 SCF Done:  E(RB3LYP) =  -610.806344473     A.U. after   12 cycles
             Convg  =    0.6890D-08             -V/T =  2.0090
 SMD-CDS (non-electrostatic) energy       (kcal/mol) =       3.22
 (included in total energy above)

 **********************************************************************

            Population analysis using the SCF density.

 **********************************************************************

 Orbital symmetries:
       Occupied  (A) (A) (A) (A) (A) (A) (A) (A) (A) (A) (A) (A)
                 (A) (A) (A) (A) (A) (A) (A) (A) (A) (A) (A) (A)
                 (A) (A) (A) (A) (A) (A) (A) (A) (A) (A) (A) (A)
                 (A) (A) (A) (A) (A) (A) (A)
       Virtual   (A) (A) (A) (A) (A) (A) (A) (A) (A) (A) (A) (A)
                 (A) (A) (A) (A) (A) (A) (A) (A) (A) (A) (A) (A)
                 (A) (A) (A) (A) (A) (A) (A) (A) (A) (A) (A) (A)
                 (A) (A) (A) (A) (A) (A) (A) (A) (A) (A) (A) (A)
                 (A) (A) (A) (A) (A) (A) (A) (A) (A) (A) (A) (A)
                 (A) (A) (A) (A) (A) (A) (A) (A) (A) (A) (A) (A)
                 (A) (A) (A) (A) (A) (A) (A) (A) (A) (A) (A) (A)
                 (A) (A) (A) (A) (A) (A) (A) (A) (A) (A) (A) (A)
                 (A) (A) (A) (A) (A) (A) (A) (A) (A) (A) (A) (A)
                 (A) (A) (A) (A) (A) (A) (A) (A) (A) (A) (A) (A)
                 (A) (A) (A) (A) (A) (A) (A) (A) (A) (A) (A) (A)
                 (A) (A) (A) (A) (A) (A) (A) (A) (A) (A) (A) (A)
                 (A) (A) (A) (A) (A) (A) (A) (A) (A) (A) (A) (A)
                 (A) (A) (A) (A) (A) (A) (A) (A) (A) (A) (A) (A)
                 (A) (A) (A) (A) (A) (A) (A) (A) (A) (A) (A) (A)
                 (A) (A) (A) (A) (A) (A) (A) (A) (A) (A) (A) (A)
                 (A) (A) (A) (A) (A) (A) (A) (A) (A) (A) (A) (A)
                 (A) (A) (A) (A) (A) (A) (A) (A) (A) (A) (A) (A)
 The electronic state is 1-A.
 Alpha  occ. eigenvalues --  -19.18304 -19.17767 -19.17503 -19.17107 -19.16278
 Alpha  occ. eigenvalues --  -10.29327 -10.24930 -10.24823 -10.24645 -10.24403
 Alpha  occ. eigenvalues --  -10.23738  -1.11190  -1.05363  -1.03846  -1.02283
 Alpha  occ. eigenvalues --   -1.01181  -0.79261  -0.77629  -0.68054  -0.65994
 Alpha  occ. eigenvalues --   -0.62313  -0.58158  -0.54636  -0.53916  -0.51631
 Alpha  occ. eigenvalues --   -0.50186  -0.49282  -0.47351  -0.44729  -0.44264
 Alpha  occ. eigenvalues --   -0.43671  -0.42119  -0.40285  -0.38325  -0.37480
 Alpha  occ. eigenvalues --   -0.35691  -0.35540  -0.34098  -0.32233  -0.29948
 Alpha  occ. eigenvalues --   -0.28809  -0.27845  -0.26303
 Alpha virt. eigenvalues --    0.00388   0.01290   0.02166   0.03007   0.03910
 Alpha virt. eigenvalues --    0.04656   0.05477   0.05518   0.06173   0.08268
 Alpha virt. eigenvalues --    0.08880   0.09603   0.09881   0.10964   0.12112
 Alpha virt. eigenvalues --    0.12453   0.12679   0.13309   0.13650   0.14677
 Alpha virt. eigenvalues --    0.15189   0.15852   0.16547   0.17194   0.17759
 Alpha virt. eigenvalues --    0.18183   0.19166   0.19620   0.19860   0.19969
 Alpha virt. eigenvalues --    0.21587   0.21884   0.22392   0.23755   0.24398
 Alpha virt. eigenvalues --    0.24974   0.25052   0.25530   0.26206   0.26669
 Alpha virt. eigenvalues --    0.27344   0.27899   0.28777   0.29550   0.30113
 Alpha virt. eigenvalues --    0.30726   0.31367   0.32031   0.32598   0.32864
 Alpha virt. eigenvalues --    0.33941   0.34542   0.35289   0.36199   0.36642
 Alpha virt. eigenvalues --    0.37280   0.38036   0.38637   0.39230   0.40452
 Alpha virt. eigenvalues --    0.41378   0.41962   0.45127   0.45230   0.46067
 Alpha virt. eigenvalues --    0.48484   0.64293   0.65560   0.66566   0.69288
 Alpha virt. eigenvalues --    0.70632   0.71632   0.73143   0.74345   0.76630
 Alpha virt. eigenvalues --    0.78783   0.79174   0.82081   0.83308   0.84158
 Alpha virt. eigenvalues --    0.88765   0.90608   0.95157   0.97088   0.98716
 Alpha virt. eigenvalues --    1.01939   1.02631   1.04850   1.06077   1.06174
 Alpha virt. eigenvalues --    1.07005   1.08572   1.09959   1.11804   1.13498
 Alpha virt. eigenvalues --    1.15806   1.20106   1.22569   1.23755   1.25145
 Alpha virt. eigenvalues --    1.26761   1.28302   1.30453   1.31631   1.31859
 Alpha virt. eigenvalues --    1.33856   1.35430   1.36751   1.37728   1.40270
 Alpha virt. eigenvalues --    1.43633   1.44863   1.45278   1.47934   1.49827
 Alpha virt. eigenvalues --    1.52169   1.55884   1.56543   1.57676   1.59320
 Alpha virt. eigenvalues --    1.61775   1.64407   1.65687   1.67047   1.69055
 Alpha virt. eigenvalues --    1.69858   1.72578   1.73300   1.75364   1.78058
 Alpha virt. eigenvalues --    1.79971   1.83848   1.85046   1.88414   1.89385
 Alpha virt. eigenvalues --    1.90987   1.92740   1.94510   1.96886   2.00157
 Alpha virt. eigenvalues --    2.00597   2.02994   2.03614   2.05031   2.07778
 Alpha virt. eigenvalues --    2.08937   2.10120   2.11866   2.13599   2.16389
 Alpha virt. eigenvalues --    2.18298   2.20180   2.23235   2.28136   2.28562
 Alpha virt. eigenvalues --    2.32493   2.33740   2.37205   2.38254   2.42176
 Alpha virt. eigenvalues --    2.44891   2.47266   2.49351   2.50724   2.51671
 Alpha virt. eigenvalues --    2.54397   2.56124   2.59610   2.61951   2.64042
 Alpha virt. eigenvalues --    2.65821   2.66766   2.68440   2.69207   2.71736
 Alpha virt. eigenvalues --    2.72586   2.74013   2.74274   2.77522   2.80755
 Alpha virt. eigenvalues --    2.81102   2.85107   2.86996   2.87374   2.90314
 Alpha virt. eigenvalues --    2.91108   2.92343   2.97884   3.01197   3.02328
 Alpha virt. eigenvalues --    3.04929   3.06311   3.11457   3.14985   3.20751
 Alpha virt. eigenvalues --    3.34677   3.41464   3.43205   3.46479   3.47931
 Alpha virt. eigenvalues --    3.49880   3.51994   3.52400   3.55022   3.58264
 Alpha virt. eigenvalues --    4.27974   4.33926   4.42802   4.44986   4.47469
 Alpha virt. eigenvalues --    4.58692   4.61561   4.79911   4.86623   4.94071
 Alpha virt. eigenvalues --    4.98188
          Condensed to atoms (all electrons):
              1          2          3          4          5          6
     1  C    5.688164  -0.532269  -0.413976  -0.455047   0.351945   0.291464
     2  C   -0.532269   7.415339  -0.270784   0.527772  -0.267125  -0.861060
     3  C   -0.413976  -0.270784   6.220947   0.319871  -0.697088   0.005039
     4  C   -0.455047   0.527772   0.319871   6.754317  -0.831686  -0.502052
     5  C    0.351945  -0.267125  -0.697088  -0.831686   6.981671   0.045850
     6  C    0.291464  -0.861060   0.005039  -0.502052   0.045850   6.482462
     7  O   -0.006366   0.027341   0.299506  -0.063610  -0.134099  -0.013870
     8  O    0.154218  -0.134261   0.366361   0.059042  -0.207734  -0.007257
     9  O    0.081493  -0.228170  -0.029073  -0.228703   0.093785   0.317147
    10  O    0.042924  -0.012521  -0.040151   0.146713  -0.047348  -0.035812
    11  O    0.015093  -0.020047  -0.162759  -0.106507   0.267398   0.017379
    12  H    0.489685  -0.188887   0.027793  -0.028529   0.000689   0.044460
    13  H    0.406823  -0.016622  -0.028558  -0.009054   0.013713   0.016657
    14  H   -0.018227   0.315976   0.022316   0.016403  -0.014477   0.008438
    15  H    0.003633   0.033398   0.367025   0.020565  -0.048360  -0.008016
    16  H   -0.001426   0.008742  -0.008293   0.322078  -0.016979   0.016715
    17  H    0.014783  -0.026706  -0.014927  -0.037132   0.355304   0.021008
    18  H   -0.005845   0.033347   0.001612  -0.031968  -0.001992   0.011321
    19  H    0.001567  -0.001159  -0.016919   0.008961   0.042334  -0.058082
    20  H   -0.000761   0.001570   0.021703  -0.021521   0.007897  -0.003668
    21  H    0.009357  -0.025962  -0.021688  -0.025168   0.030796   0.338279
              7          8          9         10         11         12
     1  C   -0.006366   0.154218   0.081493   0.042924   0.015093   0.489685
     2  C    0.027341  -0.134261  -0.228170  -0.012521  -0.020047  -0.188887
     3  C    0.299506   0.366361  -0.029073  -0.040151  -0.162759   0.027793
     4  C   -0.063610   0.059042  -0.228703   0.146713  -0.106507  -0.028529
     5  C   -0.134099  -0.207734   0.093785  -0.047348   0.267398   0.000689
     6  C   -0.013870  -0.007257   0.317147  -0.035812   0.017379   0.044460
     7  O    8.360713  -0.046440   0.012102   0.007963   0.023260   0.012164
     8  O   -0.046440   8.374182  -0.002556  -0.006659   0.007630  -0.041328
     9  O    0.012102  -0.002556   8.406623  -0.029699   0.001457   0.008170
    10  O    0.007963  -0.006659  -0.029699   8.387002   0.005739   0.000608
    11  O    0.023260   0.007630   0.001457   0.005739   8.351352   0.000021
    12  H    0.012164  -0.041328   0.008170   0.000608   0.000021   0.535488
    13  H   -0.001304  -0.053255  -0.002292   0.000554   0.000047  -0.039363
    14  H   -0.030409   0.006635   0.003870  -0.001309   0.000266   0.002977
    15  H   -0.047339  -0.044054  -0.000089  -0.000567   0.007020  -0.000264
    16  H   -0.001091  -0.000416  -0.002058  -0.044542  -0.007173  -0.000012
    17  H    0.008888  -0.002707  -0.000863  -0.001171  -0.034457   0.000079
    18  H   -0.000537  -0.000066   0.250960   0.002459  -0.000030   0.000037
    19  H   -0.000033  -0.000588   0.035850   0.240878  -0.000421  -0.000355
    20  H   -0.000838  -0.000386   0.000058   0.000298   0.247566   0.000000
    21  H    0.000943  -0.001245  -0.028139   0.005286   0.001559   0.000145
             13         14         15         16         17         18
     1  C    0.406823  -0.018227   0.003633  -0.001426   0.014783  -0.005845
     2  C   -0.016622   0.315976   0.033398   0.008742  -0.026706   0.033347
     3  C   -0.028558   0.022316   0.367025  -0.008293  -0.014927   0.001612
     4  C   -0.009054   0.016403   0.020565   0.322078  -0.037132  -0.031968
     5  C    0.013713  -0.014477  -0.048360  -0.016979   0.355304  -0.001992
     6  C    0.016657   0.008438  -0.008016   0.016715   0.021008   0.011321
     7  O   -0.001304  -0.030409  -0.047339  -0.001091   0.008888  -0.000537
     8  O   -0.053255   0.006635  -0.044054  -0.000416  -0.002707  -0.000066
     9  O   -0.002292   0.003870  -0.000089  -0.002058  -0.000863   0.250960
    10  O    0.000554  -0.001309  -0.000567  -0.044542  -0.001171   0.002459
    11  O    0.000047   0.000266   0.007020  -0.007173  -0.034457  -0.000030
    12  H   -0.039363   0.002977  -0.000264  -0.000012   0.000079   0.000037
    13  H    0.554088  -0.004510   0.000252   0.000005  -0.000013  -0.000002
    14  H   -0.004510   0.518352  -0.000043  -0.000146   0.000022  -0.000204
    15  H    0.000252  -0.000043   0.550656  -0.000166  -0.002597  -0.000001
    16  H    0.000005  -0.000146  -0.000166   0.590481  -0.003088   0.001658
    17  H   -0.000013   0.000022  -0.002597  -0.003088   0.558894   0.000000
    18  H   -0.000002  -0.000204  -0.000001   0.001658   0.000000   0.319014
    19  H    0.000022   0.000005   0.000011  -0.002210   0.000134  -0.002310
    20  H    0.000000   0.000000  -0.000209   0.003548  -0.007114   0.000001
    21  H   -0.000124  -0.007018  -0.000044  -0.003605  -0.000159  -0.008474
             19         20         21
     1  C    0.001567  -0.000761   0.009357
     2  C   -0.001159   0.001570  -0.025962
     3  C   -0.016919   0.021703  -0.021688
     4  C    0.008961  -0.021521  -0.025168
     5  C    0.042334   0.007897   0.030796
     6  C   -0.058082  -0.003668   0.338279
     7  O   -0.000033  -0.000838   0.000943
     8  O   -0.000588  -0.000386  -0.001245
     9  O    0.035850   0.000058  -0.028139
    10  O    0.240878   0.000298   0.005286
    11  O   -0.000421   0.247566   0.001559
    12  H   -0.000355   0.000000   0.000145
    13  H    0.000022   0.000000  -0.000124
    14  H    0.000005   0.000000  -0.007018
    15  H    0.000011  -0.000209  -0.000044
    16  H   -0.002210   0.003548  -0.003605
    17  H    0.000134  -0.007114  -0.000159
    18  H   -0.002310   0.000001  -0.008474
    19  H    0.339697  -0.000021   0.000880
    20  H   -0.000021   0.334361   0.000093
    21  H    0.000880   0.000093   0.554226
 Mulliken atomic charges:
              1
     1  C   -0.117233
     2  C    0.222088
     3  C    0.052043
     4  C    0.165256
     5  C    0.075508
     6  C   -0.126401
     7  O   -0.406944
     8  O   -0.419116
     9  O   -0.659873
    10  O   -0.620645
    11  O   -0.614392
    12  H    0.176424
    13  H    0.162939
    14  H    0.181084
    15  H    0.169191
    16  H    0.147980
    17  H    0.171821
    18  H    0.431022
    19  H    0.411759
    20  H    0.417425
    21  H    0.180062
 Sum of Mulliken atomic charges =   0.00000
 Mulliken charges with hydrogens summed into heavy atoms:
              1
     1  C    0.222131
     2  C    0.403172
     3  C    0.221234
     4  C    0.313236
     5  C    0.247330
     6  C    0.053662
     7  O   -0.406944
     8  O   -0.419116
     9  O   -0.228852
    10  O   -0.208885
    11  O   -0.196967
 Sum of Mulliken charges with hydrogens summed into heavy atoms =   0.00000
 Electronic spatial extent (au):  <R**2>=           1385.1308
 Charge=              0.0000 electrons
 Dipole moment (field-independent basis, Debye):
    X=             -3.2386    Y=             -3.8291    Z=             -1.9991  Tot=              5.3988
 Quadrupole moment (field-independent basis, Debye-Ang):
   XX=            -61.1109   YY=            -55.3061   ZZ=            -73.0560
   XY=             -1.3532   XZ=              7.2371   YZ=              2.5172
 Traceless Quadrupole moment (field-independent basis, Debye-Ang):
   XX=              2.0468   YY=              7.8516   ZZ=             -9.8983
   XY=             -1.3532   XZ=              7.2371   YZ=              2.5172
 Octapole moment (field-independent basis, Debye-Ang**2):
  XXX=             -9.6746  YYY=            -27.2103  ZZZ=            -13.2389  XYY=             -5.4357
  XXY=            -21.4185  XXZ=              7.6701  XZZ=            -14.9460  YZZ=             -3.3037
  YYZ=            -10.5591  XYZ=             -9.5539
 Hexadecapole moment (field-independent basis, Debye-Ang**3):
 XXXX=           -722.1323 YYYY=           -545.0277 ZZZZ=           -381.5445 XXXY=             52.7170
 XXXZ=             23.1124 YYYX=            -43.4993 YYYZ=             14.4472 ZZZX=             14.7668
 ZZZY=              8.9396 XXYY=           -162.4495 XXZZ=           -173.9131 YYZZ=           -177.0466
 XXYZ=              7.4184 YYXZ=             10.0261 ZZXY=             -2.7777
 N-N= 7.313855924174D+02 E-N=-2.893378374186D+03  KE= 6.053469202788D+02

 Test job not archived.
 1\1\GINC-COMPUTE-10-5\SP\RB3LYP\6-31+G(d,p)\C6H10O5\ASAROTTI.IQUIR\15-
 Apr-2019\0\\# B3LYP/6-31+G** test scrf=(pcm,solvent=water,smd,dovacuum
 )\\comment\\0,1\C,0,-0.665127,1.731138,0.556473\C,0,-0.626056,1.038065
 ,-0.815088\C,0,1.364475,0.747379,0.118408\C,0,-0.205431,-1.260515,0.22
 8051\C,0,1.258203,-0.768105,0.344431\C,0,-1.022555,-0.444318,-0.811832
 \O,0,0.777454,1.094639,-1.124239\O,0,0.637413,1.45944,1.109055\O,0,-2.
 419337,-0.538336,-0.511291\O,0,-0.821287,-1.168932,1.506724\O,0,2.0883
 ,-1.367189,-0.647111\H,0,-1.438377,1.337926,1.218633\H,0,-0.787521,2.8
 1436,0.448978\H,0,-1.175807,1.580217,-1.586758\H,0,2.408175,1.07272,0.
 113004\H,0,-0.178337,-2.314172,-0.096536\H,0,1.614771,-0.999872,1.3572
 55\H,0,-2.767662,-1.343731,-0.926894\H,0,-1.776997,-1.112305,1.314044\
 H,0,2.195575,-2.303083,-0.414128\H,0,-0.815221,-0.830899,-1.815355\\Ve
 rsion=EM64L-G09RevC.01\State=1-A\HF=-610.8063445\RMSD=6.890e-09\Dipole
 =-1.2741472,-1.5064904,-0.786491\Quadrupole=1.5217141,5.8374618,-7.359
 176,-1.0060944,5.3805834,1.8714872\PG=C01 [X(C6H10O5)]\\@


 IF I HAVE SEEN FARTHER, IT IS BY STANDING ON THE
 SHOULDERS OF GIANTS. -- SIR ISAAC NEWTON
 Job cpu time:  0 days  0 hours  5 minutes 29.9 seconds.
 File lengths (MBytes):  RWF=     56 Int=      0 D2E=      0 Chk=      4 Scr=      1
 Normal termination of Gaussian 09 at Mon Apr 15 17:59:21 2019.
