 Entering Gaussian System, Link 0=g09
 Input=/home/mmarcarino.iquir/NMR/02_RSS_Levo03_OPTB_nmr.gjc
 Output=/home/mmarcarino.iquir/NMR/02_RSS_Levo03_OPTB_nmr.log
 Initial command:
 /share/apps/Gaussian09/EM64T.SSE4.2-enabled/g09/l1.exe /tmp/Gau-57315.inp -scrdir=/tmp/
 Entering Link 1 = /share/apps/Gaussian09/EM64T.SSE4.2-enabled/g09/l1.exe PID=     57316.
  
 Copyright (c) 1988,1990,1992,1993,1995,1998,2003,2009,2011,
            Gaussian, Inc.  All Rights Reserved.
  
 This is part of the Gaussian(R) 09 program.  It is based on
 the Gaussian(R) 03 system (copyright 2003, Gaussian, Inc.),
 the Gaussian(R) 98 system (copyright 1998, Gaussian, Inc.),
 the Gaussian(R) 94 system (copyright 1995, Gaussian, Inc.),
 the Gaussian 92(TM) system (copyright 1992, Gaussian, Inc.),
 the Gaussian 90(TM) system (copyright 1990, Gaussian, Inc.),
 the Gaussian 88(TM) system (copyright 1988, Gaussian, Inc.),
 the Gaussian 86(TM) system (copyright 1986, Carnegie Mellon
 University), and the Gaussian 82(TM) system (copyright 1983,
 Carnegie Mellon University). Gaussian is a federally registered
 trademark of Gaussian, Inc.
  
 This software contains proprietary and confidential information,
 including trade secrets, belonging to Gaussian, Inc.
  
 This software is provided under written license and may be
 used, copied, transmitted, or stored only in accord with that
 written license.
  
 The following legend is applicable only to US Government
 contracts under FAR:
  
                    RESTRICTED RIGHTS LEGEND
  
 Use, reproduction and disclosure by the US Government is
 subject to restrictions as set forth in subparagraphs (a)
 and (c) of the Commercial Computer Software - Restricted
 Rights clause in FAR 52.227-19.
  
 Gaussian, Inc.
 340 Quinnipiac St., Bldg. 40, Wallingford CT 06492
  
  
 ---------------------------------------------------------------
 Warning -- This program may not be used in any manner that
 competes with the business of Gaussian, Inc. or will provide
 assistance to any competitor of Gaussian, Inc.  The licensee
 of this program is prohibited from giving any competitor of
 Gaussian, Inc. access to this program.  By using this program,
 the user acknowledges that Gaussian, Inc. is engaged in the
 business of creating and licensing software in the field of
 computational chemistry and represents and warrants to the
 licensee that it is not a competitor of Gaussian, Inc. and that
 it will not use this program in any manner prohibited above.
 ---------------------------------------------------------------
  

 Cite this work as:
 Gaussian 09, Revision C.01,
 M. J. Frisch, G. W. Trucks, H. B. Schlegel, G. E. Scuseria, 
 M. A. Robb, J. R. Cheeseman, G. Scalmani, V. Barone, B. Mennucci, 
 G. A. Petersson, H. Nakatsuji, M. Caricato, X. Li, H. P. Hratchian, 
 A. F. Izmaylov, J. Bloino, G. Zheng, J. L. Sonnenberg, M. Hada, 
 M. Ehara, K. Toyota, R. Fukuda, J. Hasegawa, M. Ishida, T. Nakajima, 
 Y. Honda, O. Kitao, H. Nakai, T. Vreven, J. A. Montgomery, Jr., 
 J. E. Peralta, F. Ogliaro, M. Bearpark, J. J. Heyd, E. Brothers, 
 K. N. Kudin, V. N. Staroverov, T. Keith, R. Kobayashi, J. Normand, 
 K. Raghavachari, A. Rendell, J. C. Burant, S. S. Iyengar, J. Tomasi, 
 M. Cossi, N. Rega, J. M. Millam, M. Klene, J. E. Knox, J. B. Cross, 
 V. Bakken, C. Adamo, J. Jaramillo, R. Gomperts, R. E. Stratmann, 
 O. Yazyev, A. J. Austin, R. Cammi, C. Pomelli, J. W. Ochterski, 
 R. L. Martin, K. Morokuma, V. G. Zakrzewski, G. A. Voth, 
 P. Salvador, J. J. Dannenberg, S. Dapprich, A. D. Daniels, 
 O. Farkas, J. B. Foresman, J. V. Ortiz, J. Cioslowski, 
 and D. J. Fox, Gaussian, Inc., Wallingford CT, 2010.
 
 ******************************************
 Gaussian 09:  EM64L-G09RevC.01 23-Sep-2011
                12-Apr-2019 
 ******************************************
 %nprocshared=4
 Will use up to    4 processors via shared memory.
 ------------------------------------------------
 # mpw1pw91/6-31+g** nmr scrf=(pcm,solvent=water)
 ------------------------------------------------
 1/38=1/1;
 2/12=2,17=6,18=5,40=1/2;
 3/5=1,6=6,7=111,11=2,16=1,25=1,30=1,70=2201,72=1,74=-7/1,2,8,3;
 4//1;
 5/5=2,38=5,53=1/2;
 8/6=1,10=90,11=11/1;
 10/13=100,45=16/2;
 6/7=2,8=2,9=2,10=2,28=1/1;
 99/9=1/99;
 -------
 comment
 -------
 Charge =  0 Multiplicity = 1
 Symbolic Z-Matrix:
 6                    -0.58012   1.77266   0.52121 
 6                    -0.48688   1.07833  -0.84284 
 6                     1.39916   0.6363    0.25228 
 6                    -0.31615  -1.2494    0.20012 
 6                     1.17897  -0.88171   0.37692 
 6                    -1.01135  -0.3722   -0.87246 
 8                     0.94527   1.02982  -1.03962 
 8                     0.63742   1.3786    1.18624 
 8                    -2.41877  -0.42774  -0.72771 
 8                    -1.05954  -1.06042   1.41306 
 8                     1.98436  -1.5372   -0.59972 
 1                    -1.44289   1.45242   1.10866 
 1                    -0.59117   2.86285   0.4161 
 1                    -0.92605   1.66115  -1.65445 
 1                     2.45851   0.89316   0.34117 
 1                    -0.36949  -2.30043  -0.10641 
 1                     1.51836  -1.23694   1.35498 
 1                    -2.56272  -0.6105    0.22122 
 1                    -0.99337  -1.87024   1.94211 
 1                     1.85712  -1.04686  -1.43122 
 1                    -0.76004  -0.77293  -1.86145 
 
                          Input orientation:                          
 ---------------------------------------------------------------------
 Center     Atomic      Atomic             Coordinates (Angstroms)
 Number     Number       Type             X           Y           Z
 ---------------------------------------------------------------------
      1          6           0       -0.580119    1.772660    0.521214
      2          6           0       -0.486879    1.078329   -0.842843
      3          6           0        1.399164    0.636297    0.252279
      4          6           0       -0.316145   -1.249398    0.200115
      5          6           0        1.178968   -0.881708    0.376915
      6          6           0       -1.011351   -0.372201   -0.872459
      7          8           0        0.945267    1.029821   -1.039621
      8          8           0        0.637423    1.378595    1.186243
      9          8           0       -2.418773   -0.427742   -0.727714
     10          8           0       -1.059538   -1.060417    1.413056
     11          8           0        1.984361   -1.537203   -0.599719
     12          1           0       -1.442886    1.452416    1.108664
     13          1           0       -0.591165    2.862851    0.416097
     14          1           0       -0.926049    1.661153   -1.654452
     15          1           0        2.458507    0.893161    0.341169
     16          1           0       -0.369493   -2.300426   -0.106414
     17          1           0        1.518359   -1.236935    1.354976
     18          1           0       -2.562724   -0.610499    0.221222
     19          1           0       -0.993370   -1.870237    1.942109
     20          1           0        1.857122   -1.046861   -1.431219
     21          1           0       -0.760043   -0.772929   -1.861447
 ---------------------------------------------------------------------
                    Distance matrix (angstroms):
                    1          2          3          4          5
     1  C    0.000000
     2  C    1.533441   0.000000
     3  C    2.298088   2.225274   0.000000
     4  C    3.050512   2.556409   2.549677   0.000000
     5  C    3.187613   2.846858   1.538948   1.549780   0.000000
     6  C    2.593977   1.542720   2.844765   1.550226   2.572553
     7  O    2.305389   1.446415   1.424742   2.884951   2.390635
     8  O    1.442206   2.339103   1.415466   2.964471   2.461149
     9  O    3.127657   2.452289   4.082794   2.440703   3.790782
    10  O    3.008579   3.160894   3.204911   1.435121   2.473143
    11  O    4.334541   3.606542   2.406753   2.452528   1.425533
    12  H    1.091797   2.205056   3.078424   3.065095   3.585765
    13  H    1.095303   2.186395   2.990951   4.127091   4.142056
    14  H    2.205816   1.091450   3.176880   3.504670   3.876041
    15  H    3.168467   3.179854   1.093658   3.508440   2.188300
    16  H    4.126537   3.460071   3.446904   1.096114   2.155017
    17  H    3.762503   3.769859   2.176958   2.167779   1.094521
    18  H    3.114509   2.879845   4.153555   2.335756   3.754737
    19  H    3.931974   4.087363   3.855186   1.969421   2.854133
    20  H    4.207355   3.218223   2.424234   2.724952   1.938174
    21  H    3.491342   2.130570   3.334056   2.161968   2.963420
                    6          7          8          9         10
     6  C    0.000000
     7  O    2.412874   0.000000
     8  O    3.165754   2.273957   0.000000
     9  O    1.415935   3.679476   4.033165   0.000000
    10  O    2.387371   3.795255   2.979916   2.613560   0.000000
    11  O    3.225819   2.804076   3.675021   4.542563   3.680205
    12  H    2.727691   3.239906   2.083064   2.803504   2.560066
    13  H    3.507491   2.799953   2.074987   3.934013   4.074964
    14  H    2.180211   2.068434   3.254817   2.729570   4.102971
    15  H    3.887666   2.053084   2.065464   5.164800   4.164379
    16  H    2.171833   3.700002   4.027411   2.844733   2.079080
    17  H    3.479751   3.346746   2.765053   4.526964   2.584586
    18  H    1.913030   4.072637   3.889563   0.977037   1.970397
    19  H    3.188452   4.589048   3.712914   3.352689   0.969579
    20  H    2.999253   2.301616   3.771155   4.377386   4.073940
    21  H    1.096283   2.614075   3.983765   2.038600   3.300715
                   11         12         13         14         15
    11  O    0.000000
    12  H    4.858232   0.000000
    13  H    5.198624   1.787290   0.000000
    14  H    4.451115   2.818777   2.417312   0.000000
    15  H    2.648916   4.015306   3.631225   4.003440   0.000000
    16  H    2.523190   4.088081   5.194380   4.289555   4.289162
    17  H    2.031785   4.007774   4.705298   4.840527   2.539487
    18  H    4.712611   2.509424   3.998647   3.370054   5.242913
    19  H    3.929209   3.454956   4.989249   5.040883   4.702641
    20  H    0.973662   4.856691   4.969158   3.889629   2.695683
    21  H    3.115738   3.773592   4.293556   2.448502   4.241042
                   16         17         18         19         20
    16  H    0.000000
    17  H    2.613553   0.000000
    18  H    2.788093   4.281712   0.000000
    19  H    2.184200   2.656046   2.647879   0.000000
    20  H    2.878254   2.813143   4.738777   4.492504   0.000000
    21  H    2.359220   3.968853   2.759267   3.965547   2.666400
                   21
    21  H    0.000000
 Stoichiometry    C6H10O5
 Framework group  C1[X(C6H10O5)]
 Deg. of freedom    57
 Full point group                 C1      NOp   1
 Largest Abelian subgroup         C1      NOp   1
 Largest concise Abelian subgroup C1      NOp   1
                         Standard orientation:                         
 ---------------------------------------------------------------------
 Center     Atomic      Atomic             Coordinates (Angstroms)
 Number     Number       Type             X           Y           Z
 ---------------------------------------------------------------------
      1          6           0       -0.580120    1.772660    0.521214
      2          6           0       -0.486880    1.078329   -0.842843
      3          6           0        1.399163    0.636298    0.252279
      4          6           0       -0.316144   -1.249398    0.200115
      5          6           0        1.178969   -0.881707    0.376915
      6          6           0       -1.011351   -0.372202   -0.872459
      7          8           0        0.945266    1.029822   -1.039621
      8          8           0        0.637422    1.378596    1.186243
      9          8           0       -2.418773   -0.427744   -0.727714
     10          8           0       -1.059537   -1.060418    1.413056
     11          8           0        1.984362   -1.537201   -0.599719
     12          1           0       -1.442887    1.452415    1.108664
     13          1           0       -0.591167    2.862851    0.416097
     14          1           0       -0.926050    1.661152   -1.654452
     15          1           0        2.458506    0.893163    0.341169
     16          1           0       -0.369491   -2.300426   -0.106414
     17          1           0        1.518360   -1.236934    1.354976
     18          1           0       -2.562724   -0.610501    0.221222
     19          1           0       -0.993369   -1.870238    1.942109
     20          1           0        1.857123   -1.046860   -1.431219
     21          1           0       -0.760042   -0.772930   -1.861447
 ---------------------------------------------------------------------
 Rotational constants (GHZ):      1.4688546      1.2485620      1.0144880
 Standard basis: 6-31+G(d,p) (6D, 7F)
 There are   259 symmetry adapted basis functions of A   symmetry.
 Integral buffers will be    131072 words long.
 Raffenetti 2 integral format.
 Two-electron integral symmetry is turned on.
   259 basis functions,   422 primitive gaussians,   259 cartesian basis functions
    43 alpha electrons       43 beta electrons
       nuclear repulsion energy       733.0333530805 Hartrees.
 NAtoms=   21 NActive=   21 NUniq=   21 SFac= 1.00D+00 NAtFMM=   60 NAOKFM=F Big=F
 ------------------------------------------------------------------------------
 Polarizable Continuum Model (PCM)
 =================================
 Model                : PCM.
 Atomic radii         : UFF (Universal Force Field).
 Polarization charges : Total charges.
 Charge compensation  : None.
 Solution method      : Matrix inversion.
 Cavity type          : Scaled VdW (van der Waals Surface) (Alpha=1.100).
 Cavity algorithm     : GePol (No added spheres)
                        Default sphere list used, NSphG=   21.
                        Lebedev-Laikov grids with approx.  5.0 points / Ang**2.
                        Smoothing algorithm: Karplus/York (Gamma=1.0000).
                        Polarization charges: spherical gaussians, with
                                              point-specific exponents (IZeta= 3).
                        Self-potential: point-specific (ISelfS= 7).
                        Self-field    : sphere-specific E.n sum rule (ISelfD= 2).
 Solvent              : Water, Eps=  78.355300 Eps(inf)=   1.777849
 ------------------------------------------------------------------------------
 One-electron integrals computed using PRISM.
 NBasis=   259 RedAO= T  NBF=   259
 NBsUse=   259 1.00D-06 NBFU=   259
 Harris functional with IExCor=  908 diagonalized for initial guess.
 ExpMin= 4.38D-02 ExpMax= 5.48D+03 ExpMxC= 8.25D+02 IAcc=2 IRadAn=         4 AccDes= 0.00D+00
 HarFok:  IExCor=  908 AccDes= 0.00D+00 IRadAn=         4 IDoV= 1
 ScaDFX=  1.000000  1.000000  1.000000  1.000000
 FoFCou: FMM=F IPFlag=           0 FMFlag=      100000 FMFlg1=           0
         NFxFlg=           0 DoJE=T BraDBF=F KetDBF=T FulRan=T
         Omega=  0.000000  0.000000  1.000000  0.000000  0.000000 ICntrl=     500 IOpCl=  0
         NMat0=    1 NMatS0=    1 NMatT0=    0 NMatD0=    1 NMtDS0=    0 NMtDT0=    0
         I1Cent=           4 NGrid=           0.
 Petite list used in FoFCou.
 Initial guess orbital symmetries:
       Occupied  (A) (A) (A) (A) (A) (A) (A) (A) (A) (A) (A) (A)
                 (A) (A) (A) (A) (A) (A) (A) (A) (A) (A) (A) (A)
                 (A) (A) (A) (A) (A) (A) (A) (A) (A) (A) (A) (A)
                 (A) (A) (A) (A) (A) (A) (A)
       Virtual   (A) (A) (A) (A) (A) (A) (A) (A) (A) (A) (A) (A)
                 (A) (A) (A) (A) (A) (A) (A) (A) (A) (A) (A) (A)
                 (A) (A) (A) (A) (A) (A) (A) (A) (A) (A) (A) (A)
                 (A) (A) (A) (A) (A) (A) (A) (A) (A) (A) (A) (A)
                 (A) (A) (A) (A) (A) (A) (A) (A) (A) (A) (A) (A)
                 (A) (A) (A) (A) (A) (A) (A) (A) (A) (A) (A) (A)
                 (A) (A) (A) (A) (A) (A) (A) (A) (A) (A) (A) (A)
                 (A) (A) (A) (A) (A) (A) (A) (A) (A) (A) (A) (A)
                 (A) (A) (A) (A) (A) (A) (A) (A) (A) (A) (A) (A)
                 (A) (A) (A) (A) (A) (A) (A) (A) (A) (A) (A) (A)
                 (A) (A) (A) (A) (A) (A) (A) (A) (A) (A) (A) (A)
                 (A) (A) (A) (A) (A) (A) (A) (A) (A) (A) (A) (A)
                 (A) (A) (A) (A) (A) (A) (A) (A) (A) (A) (A) (A)
                 (A) (A) (A) (A) (A) (A) (A) (A) (A) (A) (A) (A)
                 (A) (A) (A) (A) (A) (A) (A) (A) (A) (A) (A) (A)
                 (A) (A) (A) (A) (A) (A) (A) (A) (A) (A) (A) (A)
                 (A) (A) (A) (A) (A) (A) (A) (A) (A) (A) (A) (A)
                 (A) (A) (A) (A) (A) (A) (A) (A) (A) (A) (A) (A)
 The electronic state of the initial guess is 1-A.
 Requested convergence on RMS density matrix=1.00D-08 within 128 cycles.
 Requested convergence on MAX density matrix=1.00D-06.
 Requested convergence on             energy=1.00D-06.
 No special actions if energy rises.
 Error on total polarization charges =  0.01148
 SCF Done:  E(RmPW1PW91) =  -610.649007856     A.U. after   12 cycles
             Convg  =    0.8929D-08             -V/T =  2.0090
 Range of M.O.s used for correlation:     1   259
 NBasis=   259 NAE=    43 NBE=    43 NFC=     0 NFV=     0
 NROrb=    259 NOA=    43 NOB=    43 NVA=   216 NVB=   216

 **** Warning!!: The largest alpha MO coefficient is  0.62662448D+02

 NEqPCM:  Using equilibrium solvation (IEInf=0, Eps=  78.3553, EpsInf=   1.7778)
          Differentiating once with respect to magnetic field using GIAOs.
          Electric field/nuclear overlap derivatives assumed to be zero.
 FoFCou: FMM=F IPFlag=           0 FMFlag=    10101102 FMFlg1=           0
         NFxFlg=    40000000 DoJE=F BraDBF=F KetDBF=T FulRan=T
         Omega=  0.000000  0.000000  1.000000  0.000000  0.000000 ICntrl=    6100 IOpCl=  0
         NMat0=    1 NMatS0=    1 NMatT0=    0 NMatD0=    1 NMtDS0=    0 NMtDT0=    0
         I1Cent=           7 NGrid=        1516.
 Symmetry not used in FoFCou.
          There are     3 degrees of freedom in the 1st order CPHF.  IDoFFX=0.
      3 vectors produced by pass  0 Test12= 3.10D-13 3.33D-08 XBig12= 1.92D+01 7.18D-01.
 AX will form     3 AO Fock derivatives at one time.
      3 vectors produced by pass  1 Test12= 3.10D-13 3.33D-08 XBig12= 4.32D-02 2.36D-02.
      3 vectors produced by pass  2 Test12= 3.10D-13 3.33D-08 XBig12= 8.42D-05 1.36D-03.
      3 vectors produced by pass  3 Test12= 3.10D-13 3.33D-08 XBig12= 3.76D-07 9.71D-05.
      3 vectors produced by pass  4 Test12= 3.10D-13 3.33D-08 XBig12= 1.33D-09 6.28D-06.
      3 vectors produced by pass  5 Test12= 3.10D-13 3.33D-08 XBig12= 4.48D-12 3.99D-07.
 Inverted reduced A of dimension    18 with in-core refinement.
 Calculating GIAO nuclear magnetic shielding tensors.
 SCF GIAO Magnetic shielding tensor (ppm):
      1  C    Isotropic =   131.3012   Anisotropy =    65.9819
   XX=   150.7815   YX=   -14.8986   ZX=    30.0643
   XY=   -21.8865   YY=   112.7672   ZY=    -2.9474
   XZ=    25.3590   YZ=    -6.9388   ZZ=   130.3548
   Eigenvalues:   102.8733   115.7411   175.2891
      2  C    Isotropic =   118.4751   Anisotropy =    59.3267
   XX=   157.3081   YX=    -1.3583   ZX=    -8.5312
   XY=     6.5845   YY=    98.5938   ZY=    14.2908
   XZ=    -3.9603   YZ=     2.2336   ZZ=    99.5236
   Eigenvalues:    90.2087   107.1904   158.0263
      3  C    Isotropic =    92.7481   Anisotropy =    35.5014
   XX=    81.1987   YX=   -13.0709   ZX=   -13.7964
   XY=   -28.0753   YY=    89.7802   ZY=     9.0185
   XZ=    -1.6608   YZ=     2.8283   ZZ=   107.2653
   Eigenvalues:    64.3484    97.4802   116.4156
      4  C    Isotropic =   122.6323   Anisotropy =    46.1934
   XX=   130.2288   YX=    -5.1643   ZX=   -27.9767
   XY=     0.0085   YY=   102.4805   ZY=    14.2625
   XZ=    -8.2929   YZ=    10.4052   ZZ=   135.1877
   Eigenvalues:    97.9026   116.5665   153.4279
      5  C    Isotropic =   121.9529   Anisotropy =    37.2939
   XX=   124.2255   YX=    -7.9721   ZX=    -8.7668
   XY=    -5.1474   YY=   111.1407   ZY=    10.4876
   XZ=   -16.2855   YZ=    17.8281   ZZ=   130.4926
   Eigenvalues:   103.6681   115.3752   146.8156
      6  C    Isotropic =   130.5648   Anisotropy =    52.1231
   XX=   161.5878   YX=     5.5412   ZX=    -4.3170
   XY=    10.2443   YY=   122.5538   ZY=     4.4568
   XZ=   -19.4202   YZ=     0.2403   ZZ=   107.5528
   Eigenvalues:   104.1825   122.1984   165.3135
      7  O    Isotropic =   240.3421   Anisotropy =    49.0441
   XX=   250.9322   YX=   -40.3944   ZX=     7.0779
   XY=   -30.7532   YY=   201.7644   ZY=     4.0571
   XZ=    -2.9046   YZ=    18.5690   ZZ=   268.3297
   Eigenvalues:   181.7105   266.2777   273.0382
      8  O    Isotropic =   267.4264   Anisotropy =   106.8176
   XX=   247.7095   YX=   -51.5523   ZX=    -7.4777
   XY=   -57.5812   YY=   223.4501   ZY=    30.0940
   XZ=    22.9711   YZ=    26.7614   ZZ=   331.1196
   Eigenvalues:   174.9691   288.6720   338.6381
      9  O    Isotropic =   309.2129   Anisotropy =    29.3814
   XX=   315.4620   YX=     7.9657   ZX=     1.9372
   XY=    25.0978   YY=   307.6602   ZY=   -20.2999
   XZ=    13.5547   YZ=    -6.0771   ZZ=   304.5164
   Eigenvalues:   283.5685   315.2696   328.8005
     10  O    Isotropic =   302.9803   Anisotropy =    40.4090
   XX=   281.2946   YX=    -6.3069   ZX=    14.9249
   XY=    -8.6472   YY=   306.2881   ZY=   -10.5035
   XZ=   -14.7987   YZ=   -17.2243   ZZ=   321.3580
   Eigenvalues:   278.8664   300.1548   329.9196
     11  O    Isotropic =   289.9266   Anisotropy =    27.5992
   XX=   287.9826   YX=   -14.5188   ZX=   -18.8956
   XY=   -11.8443   YY=   296.4602   ZY=    -3.0989
   XZ=   -11.2909   YZ=    -3.9381   ZZ=   285.3369
   Eigenvalues:   266.8056   294.6481   308.3260
     12  H    Isotropic =    27.3112   Anisotropy =     5.0526
   XX=    29.6745   YX=    -0.7384   ZX=    -2.9454
   XY=    -0.5222   YY=    27.1782   ZY=     0.7010
   XZ=    -0.9230   YZ=     1.7020   ZZ=    25.0810
   Eigenvalues:    24.0906    27.1635    30.6797
     13  H    Isotropic =    27.7441   Anisotropy =    11.3486
   XX=    25.3872   YX=    -3.8279   ZX=     1.7918
   XY=    -3.4086   YY=    33.9204   ZY=     0.7169
   XZ=     1.7732   YZ=    -1.1766   ZZ=    23.9245
   Eigenvalues:    22.3683    25.5541    35.3098
     14  H    Isotropic =    27.2168   Anisotropy =     7.5033
   XX=    26.7735   YX=    -0.9650   ZX=     3.2820
   XY=    -1.3754   YY=    26.8697   ZY=    -3.7873
   XZ=     1.9234   YZ=    -2.8734   ZZ=    28.0072
   Eigenvalues:    23.7466    25.6847    32.2190
     15  H    Isotropic =    26.1640   Anisotropy =     7.7653
   XX=    30.8538   YX=     1.2981   ZX=     1.7572
   XY=     0.6078   YY=    23.8437   ZY=     1.0460
   XZ=     1.2344   YZ=     1.2576   ZZ=    23.7945
   Eigenvalues:    22.6437    24.5075    31.3409
     16  H    Isotropic =    27.4855   Anisotropy =     6.7321
   XX=    25.0962   YX=    -0.9315   ZX=    -2.2321
   XY=    -0.5095   YY=    30.7759   ZY=     1.4209
   XZ=    -2.3160   YZ=     2.6650   ZZ=    26.5844
   Eigenvalues:    23.3893    27.0937    31.9736
     17  H    Isotropic =    27.9038   Anisotropy =     5.4251
   XX=    27.7861   YX=    -2.3542   ZX=     1.2959
   XY=    -2.3855   YY=    25.9172   ZY=    -1.0213
   XZ=     0.9186   YZ=    -1.9800   ZZ=    30.0082
   Eigenvalues:    24.2306    27.9603    31.5206
     18  H    Isotropic =    27.7544   Anisotropy =    16.6446
   XX=    27.7502   YX=     0.9660   ZX=    -2.0224
   XY=     0.0023   YY=    18.4162   ZY=    -5.4004
   XZ=    -2.4565   YZ=    -4.7162   ZZ=    37.0967
   Eigenvalues:    17.1339    27.2785    38.8508
     19  H    Isotropic =    29.4757   Anisotropy =    21.4842
   XX=    22.3934   YX=    -0.3602   ZX=    -3.3802
   XY=     0.1392   YY=    34.7300   ZY=   -10.4294
   XZ=    -2.0035   YZ=   -10.5968   ZZ=    31.3037
   Eigenvalues:    20.1977    24.4308    43.7985
     20  H    Isotropic =    29.6155   Anisotropy =    13.5464
   XX=    24.2060   YX=    -3.5762   ZX=    -1.7136
   XY=    -4.2384   YY=    27.7741   ZY=    -4.1432
   XZ=    -2.1673   YZ=    -4.6300   ZZ=    36.8664
   Eigenvalues:    20.6592    29.5409    38.6465
     21  H    Isotropic =    27.6034   Anisotropy =     5.5060
   XX=    27.6747   YX=     0.9895   ZX=    -1.1212
   XY=     0.2973   YY=    25.0634   ZY=     3.5758
   XZ=     0.4258   YZ=     1.8860   ZZ=    30.0720
   Eigenvalues:    23.7278    27.8083    31.2740
 End of Minotr Frequency-dependent properties file   721 does not exist.
 End of Minotr Frequency-dependent properties file   722 does not exist.

 **********************************************************************

            Population analysis using the SCF density.

 **********************************************************************

 Orbital symmetries:
       Occupied  (A) (A) (A) (A) (A) (A) (A) (A) (A) (A) (A) (A)
                 (A) (A) (A) (A) (A) (A) (A) (A) (A) (A) (A) (A)
                 (A) (A) (A) (A) (A) (A) (A) (A) (A) (A) (A) (A)
                 (A) (A) (A) (A) (A) (A) (A)
       Virtual   (A) (A) (A) (A) (A) (A) (A) (A) (A) (A) (A) (A)
                 (A) (A) (A) (A) (A) (A) (A) (A) (A) (A) (A) (A)
                 (A) (A) (A) (A) (A) (A) (A) (A) (A) (A) (A) (A)
                 (A) (A) (A) (A) (A) (A) (A) (A) (A) (A) (A) (A)
                 (A) (A) (A) (A) (A) (A) (A) (A) (A) (A) (A) (A)
                 (A) (A) (A) (A) (A) (A) (A) (A) (A) (A) (A) (A)
                 (A) (A) (A) (A) (A) (A) (A) (A) (A) (A) (A) (A)
                 (A) (A) (A) (A) (A) (A) (A) (A) (A) (A) (A) (A)
                 (A) (A) (A) (A) (A) (A) (A) (A) (A) (A) (A) (A)
                 (A) (A) (A) (A) (A) (A) (A) (A) (A) (A) (A) (A)
                 (A) (A) (A) (A) (A) (A) (A) (A) (A) (A) (A) (A)
                 (A) (A) (A) (A) (A) (A) (A) (A) (A) (A) (A) (A)
                 (A) (A) (A) (A) (A) (A) (A) (A) (A) (A) (A) (A)
                 (A) (A) (A) (A) (A) (A) (A) (A) (A) (A) (A) (A)
                 (A) (A) (A) (A) (A) (A) (A) (A) (A) (A) (A) (A)
                 (A) (A) (A) (A) (A) (A) (A) (A) (A) (A) (A) (A)
                 (A) (A) (A) (A) (A) (A) (A) (A) (A) (A) (A) (A)
                 (A) (A) (A) (A) (A) (A) (A) (A) (A) (A) (A) (A)
 The electronic state is 1-A.
 Alpha  occ. eigenvalues --  -19.28146 -19.27354 -19.26910 -19.26586 -19.25977
 Alpha  occ. eigenvalues --  -10.35979 -10.31913 -10.31582 -10.31455 -10.31359
 Alpha  occ. eigenvalues --  -10.30450  -1.14437  -1.08897  -1.07114  -1.05684
 Alpha  occ. eigenvalues --   -1.04101  -0.82017  -0.80660  -0.70827  -0.68625
 Alpha  occ. eigenvalues --   -0.64881  -0.61375  -0.57942  -0.55716  -0.54252
 Alpha  occ. eigenvalues --   -0.53090  -0.49934  -0.48344  -0.47205  -0.46118
 Alpha  occ. eigenvalues --   -0.45259  -0.43549  -0.42725  -0.39708  -0.39160
 Alpha  occ. eigenvalues --   -0.37963  -0.37665  -0.35033  -0.34163  -0.33201
 Alpha  occ. eigenvalues --   -0.30692  -0.28954  -0.27383
 Alpha virt. eigenvalues --    0.00336   0.01413   0.02336   0.02529   0.04154
 Alpha virt. eigenvalues --    0.04462   0.05078   0.05305   0.05733   0.08461
 Alpha virt. eigenvalues --    0.09005   0.09085   0.09932   0.10745   0.11808
 Alpha virt. eigenvalues --    0.12180   0.12348   0.13280   0.13552   0.14564
 Alpha virt. eigenvalues --    0.15030   0.15863   0.16635   0.17171   0.17338
 Alpha virt. eigenvalues --    0.18340   0.18959   0.19566   0.20012   0.20334
 Alpha virt. eigenvalues --    0.21599   0.22499   0.22707   0.23612   0.24408
 Alpha virt. eigenvalues --    0.24998   0.25072   0.25177   0.26323   0.27323
 Alpha virt. eigenvalues --    0.27635   0.28061   0.29485   0.30035   0.30541
 Alpha virt. eigenvalues --    0.31589   0.31775   0.32880   0.33434   0.34210
 Alpha virt. eigenvalues --    0.34953   0.35194   0.35930   0.36157   0.36848
 Alpha virt. eigenvalues --    0.37995   0.38434   0.39189   0.39585   0.40897
 Alpha virt. eigenvalues --    0.41739   0.42342   0.44291   0.45615   0.47534
 Alpha virt. eigenvalues --    0.50006   0.64910   0.65495   0.67569   0.69616
 Alpha virt. eigenvalues --    0.70643   0.72436   0.73617   0.75255   0.78065
 Alpha virt. eigenvalues --    0.79227   0.81549   0.83318   0.83563   0.86012
 Alpha virt. eigenvalues --    0.89898   0.91437   0.95847   0.98205   0.99574
 Alpha virt. eigenvalues --    1.02234   1.03158   1.04211   1.05372   1.06645
 Alpha virt. eigenvalues --    1.08274   1.10464   1.11754   1.12982   1.14997
 Alpha virt. eigenvalues --    1.17435   1.21690   1.22600   1.25755   1.26339
 Alpha virt. eigenvalues --    1.28311   1.28956   1.31724   1.32699   1.33949
 Alpha virt. eigenvalues --    1.36648   1.37177   1.38423   1.39657   1.40992
 Alpha virt. eigenvalues --    1.43249   1.46090   1.47391   1.48707   1.49747
 Alpha virt. eigenvalues --    1.52008   1.57784   1.58400   1.59314   1.60789
 Alpha virt. eigenvalues --    1.61201   1.64335   1.66566   1.68455   1.69966
 Alpha virt. eigenvalues --    1.71046   1.73276   1.74947   1.76694   1.78550
 Alpha virt. eigenvalues --    1.80428   1.84351   1.85222   1.87583   1.89974
 Alpha virt. eigenvalues --    1.90577   1.93009   1.95032   1.97632   1.99130
 Alpha virt. eigenvalues --    2.00547   2.02484   2.05483   2.08077   2.08318
 Alpha virt. eigenvalues --    2.10734   2.12469   2.13213   2.15149   2.18391
 Alpha virt. eigenvalues --    2.20293   2.22107   2.23928   2.27430   2.29025
 Alpha virt. eigenvalues --    2.31911   2.34553   2.37735   2.38925   2.43656
 Alpha virt. eigenvalues --    2.45689   2.49445   2.49909   2.51180   2.53549
 Alpha virt. eigenvalues --    2.54835   2.58904   2.59537   2.61067   2.63353
 Alpha virt. eigenvalues --    2.66016   2.67346   2.68481   2.68792   2.71876
 Alpha virt. eigenvalues --    2.72102   2.74029   2.74635   2.78029   2.80899
 Alpha virt. eigenvalues --    2.82960   2.84722   2.87417   2.89463   2.91540
 Alpha virt. eigenvalues --    2.92323   2.95518   2.99377   3.00943   3.02288
 Alpha virt. eigenvalues --    3.04065   3.08126   3.09696   3.15410   3.22474
 Alpha virt. eigenvalues --    3.36143   3.42138   3.46866   3.47426   3.48708
 Alpha virt. eigenvalues --    3.50066   3.54624   3.57042   3.59099   3.59187
 Alpha virt. eigenvalues --    4.29413   4.35758   4.42601   4.47858   4.50804
 Alpha virt. eigenvalues --    4.57829   4.63051   4.83670   4.89107   4.93440
 Alpha virt. eigenvalues --    5.03026
          Condensed to atoms (all electrons):
              1          2          3          4          5          6
     1  C    5.892081  -0.648426  -0.605263  -0.498459   0.464921   0.284892
     2  C   -0.648426   7.505103   0.070656   0.734340  -0.423642  -1.190778
     3  C   -0.605263   0.070656   6.579178   0.558603  -1.043135  -0.142058
     4  C   -0.498459   0.734340   0.558603   7.102194  -1.310268  -0.660285
     5  C    0.464921  -0.423642  -1.043135  -1.310268   7.607351   0.124406
     6  C    0.284892  -1.190778  -0.142058  -0.660285   0.124406   7.070208
     7  O    0.034899   0.028370   0.263147  -0.077877  -0.132568  -0.010284
     8  O    0.203471  -0.135831   0.356659   0.081613  -0.208478  -0.042949
     9  O    0.065614  -0.205650  -0.030840  -0.145078   0.062112   0.358173
    10  O    0.077731  -0.063667  -0.099486  -0.031977   0.151284  -0.068326
    11  O   -0.000652  -0.001519  -0.115865  -0.063982   0.299543  -0.007803
    12  H    0.495964  -0.176302   0.011634  -0.029928   0.013897   0.030150
    13  H    0.363534   0.005629  -0.008103   0.000426   0.002535   0.021160
    14  H    0.007553   0.289062   0.001189   0.002064   0.003501   0.033053
    15  H    0.000064   0.039846   0.345371   0.018855  -0.021586  -0.011291
    16  H   -0.003538   0.013004   0.004764   0.313603   0.021512  -0.018416
    17  H    0.008950  -0.029754  -0.000633  -0.024260   0.337183   0.044106
    18  H    0.016078  -0.019390  -0.011847  -0.064655   0.035603   0.007151
    19  H   -0.007744   0.002284   0.017950   0.090662  -0.086493   0.010965
    20  H    0.000569  -0.010463  -0.012241  -0.017614  -0.008728   0.028422
    21  H    0.031215  -0.053799  -0.028761  -0.047387   0.034490   0.374314
              7          8          9         10         11         12
     1  C    0.034899   0.203471   0.065614   0.077731  -0.000652   0.495964
     2  C    0.028370  -0.135831  -0.205650  -0.063667  -0.001519  -0.176302
     3  C    0.263147   0.356659  -0.030840  -0.099486  -0.115865   0.011634
     4  C   -0.077877   0.081613  -0.145078  -0.031977  -0.063982  -0.029928
     5  C   -0.132568  -0.208478   0.062112   0.151284   0.299543   0.013897
     6  C   -0.010284  -0.042949   0.358173  -0.068326  -0.007803   0.030150
     7  O    8.306025  -0.038184   0.011727   0.011833  -0.005085   0.011799
     8  O   -0.038184   8.270892  -0.005442  -0.010250   0.007299  -0.041869
     9  O    0.011727  -0.005442   8.214310  -0.003573  -0.001841   0.011069
    10  O    0.011833  -0.010250  -0.003573   8.439453   0.003549  -0.000470
    11  O   -0.005085   0.007299  -0.001841   0.003549   8.180418   0.000021
    12  H    0.011799  -0.041869   0.011069  -0.000470   0.000021   0.524031
    13  H   -0.002987  -0.053397  -0.002295   0.000526   0.000051  -0.037453
    14  H   -0.028646   0.006520   0.000598  -0.000898   0.000041   0.002753
    15  H   -0.044411  -0.046357  -0.000061  -0.000269   0.004152  -0.000234
    16  H   -0.001957   0.000671   0.004955  -0.035606  -0.004835  -0.000026
    17  H    0.011247  -0.003426  -0.001030  -0.003920  -0.050963   0.000028
    18  H    0.000273  -0.000448   0.259742   0.033348   0.000011  -0.000619
    19  H   -0.000277  -0.000408  -0.001780   0.229342  -0.000079   0.000094
    20  H    0.028159  -0.000753  -0.000427  -0.000450   0.252186  -0.000002
    21  H    0.007499  -0.002003  -0.045571   0.008800  -0.000458   0.000191
             13         14         15         16         17         18
     1  C    0.363534   0.007553   0.000064  -0.003538   0.008950   0.016078
     2  C    0.005629   0.289062   0.039846   0.013004  -0.029754  -0.019390
     3  C   -0.008103   0.001189   0.345371   0.004764  -0.000633  -0.011847
     4  C    0.000426   0.002064   0.018855   0.313603  -0.024260  -0.064655
     5  C    0.002535   0.003501  -0.021586   0.021512   0.337183   0.035603
     6  C    0.021160   0.033053  -0.011291  -0.018416   0.044106   0.007151
     7  O   -0.002987  -0.028646  -0.044411  -0.001957   0.011247   0.000273
     8  O   -0.053397   0.006520  -0.046357   0.000671  -0.003426  -0.000448
     9  O   -0.002295   0.000598  -0.000061   0.004955  -0.001030   0.259742
    10  O    0.000526  -0.000898  -0.000269  -0.035606  -0.003920   0.033348
    11  O    0.000051   0.000041   0.004152  -0.004835  -0.050963   0.000011
    12  H   -0.037453   0.002753  -0.000234  -0.000026   0.000028  -0.000619
    13  H    0.537871  -0.003476   0.000304   0.000004  -0.000002   0.000016
    14  H   -0.003476   0.496996   0.000009  -0.000111   0.000017  -0.000124
    15  H    0.000304   0.000009   0.530310  -0.000139  -0.002605   0.000000
    16  H    0.000004  -0.000111  -0.000139   0.533319  -0.003787  -0.000162
    17  H   -0.000002   0.000017  -0.002605  -0.003787   0.523166  -0.000020
    18  H    0.000016  -0.000124   0.000000  -0.000162  -0.000020   0.349284
    19  H   -0.000002   0.000005   0.000004  -0.009620   0.001663  -0.001281
    20  H    0.000001   0.000016  -0.000971  -0.000770   0.006172  -0.000001
    21  H   -0.000142  -0.006366  -0.000025  -0.005507  -0.000183   0.005594
             19         20         21
     1  C   -0.007744   0.000569   0.031215
     2  C    0.002284  -0.010463  -0.053799
     3  C    0.017950  -0.012241  -0.028761
     4  C    0.090662  -0.017614  -0.047387
     5  C   -0.086493  -0.008728   0.034490
     6  C    0.010965   0.028422   0.374314
     7  O   -0.000277   0.028159   0.007499
     8  O   -0.000408  -0.000753  -0.002003
     9  O   -0.001780  -0.000427  -0.045571
    10  O    0.229342  -0.000450   0.008800
    11  O   -0.000079   0.252186  -0.000458
    12  H    0.000094  -0.000002   0.000191
    13  H   -0.000002   0.000001  -0.000142
    14  H    0.000005   0.000016  -0.006366
    15  H    0.000004  -0.000971  -0.000025
    16  H   -0.009620  -0.000770  -0.005507
    17  H    0.001663   0.006172  -0.000183
    18  H   -0.001281  -0.000001   0.005594
    19  H    0.340628   0.000004  -0.000164
    20  H    0.000004   0.359895  -0.000630
    21  H   -0.000164  -0.000630   0.541069
 Mulliken atomic charges:
              1
     1  C   -0.183452
     2  C    0.270927
     3  C   -0.110918
     4  C    0.069409
     5  C    0.076560
     6  C   -0.234809
     7  O   -0.372703
     8  O   -0.337331
     9  O   -0.544713
    10  O   -0.636973
    11  O   -0.494189
    12  H    0.185275
    13  H    0.175799
    14  H    0.196245
    15  H    0.189034
    16  H    0.192644
    17  H    0.188050
    18  H    0.391445
    19  H    0.414248
    20  H    0.377627
    21  H    0.187824
 Sum of Mulliken atomic charges =   0.00000
 Mulliken charges with hydrogens summed into heavy atoms:
              1
     1  C    0.177623
     2  C    0.467172
     3  C    0.078116
     4  C    0.262053
     5  C    0.264610
     6  C   -0.046985
     7  O   -0.372703
     8  O   -0.337331
     9  O   -0.153268
    10  O   -0.222725
    11  O   -0.116562
 Sum of Mulliken charges with hydrogens summed into heavy atoms =   0.00000
 Electronic spatial extent (au):  <R**2>=           1375.4033
 Charge=              0.0000 electrons
 Dipole moment (field-independent basis, Debye):
    X=             -0.7690    Y=             -1.1971    Z=              0.7886  Tot=              1.6267
 Quadrupole moment (field-independent basis, Debye-Ang):
   XX=            -72.2464   YY=            -61.5070   ZZ=            -63.4786
   XY=              1.1669   XZ=             -3.5881   YZ=             -6.4417
 Traceless Quadrupole moment (field-independent basis, Debye-Ang):
   XX=             -6.5024   YY=              4.2370   ZZ=              2.2654
   XY=              1.1669   XZ=             -3.5881   YZ=             -6.4417
 Octapole moment (field-independent basis, Debye-Ang**2):
  XXX=             10.9975  YYY=             -3.7661  ZZZ=             -3.5051  XYY=            -21.6938
  XXY=             11.6612  XXZ=             18.9286  XZZ=              0.1965  YZZ=            -17.7596
  YYZ=             11.7773  XYZ=              3.8968
 Hexadecapole moment (field-independent basis, Debye-Ang**3):
 XXXX=           -774.6806 YYYY=           -575.5816 ZZZZ=           -338.1993 XXXY=             34.6669
 XXXZ=            -44.4574 YYYX=             20.4014 YYYZ=            -37.7233 ZZZX=            -20.0681
 ZZZY=            -26.0620 XXYY=           -243.1800 XXZZ=           -180.2620 YYZZ=           -142.0406
 XXYZ=            -12.8941 YYXZ=             -7.0822 ZZXY=             -9.0153
 N-N= 7.330333530805D+02 E-N=-2.895870247829D+03  KE= 6.052077479060D+02
 1\1\GINC-COMPUTE-8-20\SP\RmPW1PW91\6-31+G(d,p)\C6H10O5\MMARCARINO.IQUI
 R\12-Apr-2019\0\\# mpw1pw91/6-31+g** nmr scrf=(pcm,solvent=water)\\com
 ment\\0,1\C,0,-0.580119,1.77266,0.521214\C,0,-0.486879,1.078329,-0.842
 843\C,0,1.399164,0.636297,0.252279\C,0,-0.316145,-1.249398,0.200115\C,
 0,1.178968,-0.881708,0.376915\C,0,-1.011351,-0.372201,-0.872459\O,0,0.
 945267,1.029821,-1.039621\O,0,0.637423,1.378595,1.186243\O,0,-2.418773
 ,-0.427742,-0.727714\O,0,-1.059538,-1.060417,1.413056\O,0,1.984361,-1.
 537203,-0.599719\H,0,-1.442886,1.452416,1.108664\H,0,-0.591165,2.86285
 1,0.416097\H,0,-0.926049,1.661153,-1.654452\H,0,2.458507,0.893161,0.34
 1169\H,0,-0.369493,-2.300426,-0.106414\H,0,1.518359,-1.236935,1.354976
 \H,0,-2.562724,-0.610499,0.221222\H,0,-0.99337,-1.870237,1.942109\H,0,
 1.857122,-1.046861,-1.431219\H,0,-0.760043,-0.772929,-1.861447\\Versio
 n=EM64L-G09RevC.01\State=1-A\HF=-610.6490079\RMSD=8.929e-09\Dipole=-0.
 3025376,-0.4709638,0.310262\Quadrupole=-4.8343557,3.1500683,1.6842874,
 0.8675514,-2.6676811,-4.7892395\PG=C01 [X(C6H10O5)]\\@


  THE LARGE PRINT GIVETH,
  AND THE SMALL PRINT TAKETH AWAY.

                     -- TOM WAITS
 Job cpu time:  0 days  0 hours 20 minutes 46.9 seconds.
 File lengths (MBytes):  RWF=     82 Int=      0 D2E=      0 Chk=      5 Scr=      1
 Normal termination of Gaussian 09 at Fri Apr 12 10:34:52 2019.
