 Entering Gaussian System, Link 0=g09
 Input=/home/mmarcarino.iquir/NMR/02_RSS_Levo05_OPTB_nmr.gjc
 Output=/home/mmarcarino.iquir/NMR/02_RSS_Levo05_OPTB_nmr.log
 Initial command:
 /share/apps/Gaussian09/EM64T.SSE4.2-enabled/g09/l1.exe /tmp/Gau-29967.inp -scrdir=/tmp/
 Entering Link 1 = /share/apps/Gaussian09/EM64T.SSE4.2-enabled/g09/l1.exe PID=     29968.
  
 Copyright (c) 1988,1990,1992,1993,1995,1998,2003,2009,2011,
            Gaussian, Inc.  All Rights Reserved.
  
 This is part of the Gaussian(R) 09 program.  It is based on
 the Gaussian(R) 03 system (copyright 2003, Gaussian, Inc.),
 the Gaussian(R) 98 system (copyright 1998, Gaussian, Inc.),
 the Gaussian(R) 94 system (copyright 1995, Gaussian, Inc.),
 the Gaussian 92(TM) system (copyright 1992, Gaussian, Inc.),
 the Gaussian 90(TM) system (copyright 1990, Gaussian, Inc.),
 the Gaussian 88(TM) system (copyright 1988, Gaussian, Inc.),
 the Gaussian 86(TM) system (copyright 1986, Carnegie Mellon
 University), and the Gaussian 82(TM) system (copyright 1983,
 Carnegie Mellon University). Gaussian is a federally registered
 trademark of Gaussian, Inc.
  
 This software contains proprietary and confidential information,
 including trade secrets, belonging to Gaussian, Inc.
  
 This software is provided under written license and may be
 used, copied, transmitted, or stored only in accord with that
 written license.
  
 The following legend is applicable only to US Government
 contracts under FAR:
  
                    RESTRICTED RIGHTS LEGEND
  
 Use, reproduction and disclosure by the US Government is
 subject to restrictions as set forth in subparagraphs (a)
 and (c) of the Commercial Computer Software - Restricted
 Rights clause in FAR 52.227-19.
  
 Gaussian, Inc.
 340 Quinnipiac St., Bldg. 40, Wallingford CT 06492
  
  
 ---------------------------------------------------------------
 Warning -- This program may not be used in any manner that
 competes with the business of Gaussian, Inc. or will provide
 assistance to any competitor of Gaussian, Inc.  The licensee
 of this program is prohibited from giving any competitor of
 Gaussian, Inc. access to this program.  By using this program,
 the user acknowledges that Gaussian, Inc. is engaged in the
 business of creating and licensing software in the field of
 computational chemistry and represents and warrants to the
 licensee that it is not a competitor of Gaussian, Inc. and that
 it will not use this program in any manner prohibited above.
 ---------------------------------------------------------------
  

 Cite this work as:
 Gaussian 09, Revision C.01,
 M. J. Frisch, G. W. Trucks, H. B. Schlegel, G. E. Scuseria, 
 M. A. Robb, J. R. Cheeseman, G. Scalmani, V. Barone, B. Mennucci, 
 G. A. Petersson, H. Nakatsuji, M. Caricato, X. Li, H. P. Hratchian, 
 A. F. Izmaylov, J. Bloino, G. Zheng, J. L. Sonnenberg, M. Hada, 
 M. Ehara, K. Toyota, R. Fukuda, J. Hasegawa, M. Ishida, T. Nakajima, 
 Y. Honda, O. Kitao, H. Nakai, T. Vreven, J. A. Montgomery, Jr., 
 J. E. Peralta, F. Ogliaro, M. Bearpark, J. J. Heyd, E. Brothers, 
 K. N. Kudin, V. N. Staroverov, T. Keith, R. Kobayashi, J. Normand, 
 K. Raghavachari, A. Rendell, J. C. Burant, S. S. Iyengar, J. Tomasi, 
 M. Cossi, N. Rega, J. M. Millam, M. Klene, J. E. Knox, J. B. Cross, 
 V. Bakken, C. Adamo, J. Jaramillo, R. Gomperts, R. E. Stratmann, 
 O. Yazyev, A. J. Austin, R. Cammi, C. Pomelli, J. W. Ochterski, 
 R. L. Martin, K. Morokuma, V. G. Zakrzewski, G. A. Voth, 
 P. Salvador, J. J. Dannenberg, S. Dapprich, A. D. Daniels, 
 O. Farkas, J. B. Foresman, J. V. Ortiz, J. Cioslowski, 
 and D. J. Fox, Gaussian, Inc., Wallingford CT, 2010.
 
 ******************************************
 Gaussian 09:  EM64L-G09RevC.01 23-Sep-2011
                12-Apr-2019 
 ******************************************
 %nprocshared=4
 Will use up to    4 processors via shared memory.
 ------------------------------------------------
 # mpw1pw91/6-31+g** nmr scrf=(pcm,solvent=water)
 ------------------------------------------------
 1/38=1/1;
 2/12=2,17=6,18=5,40=1/2;
 3/5=1,6=6,7=111,11=2,16=1,25=1,30=1,70=2201,72=1,74=-7/1,2,8,3;
 4//1;
 5/5=2,38=5,53=1/2;
 8/6=1,10=90,11=11/1;
 10/13=100,45=16/2;
 6/7=2,8=2,9=2,10=2,28=1/1;
 99/9=1/99;
 -------
 comment
 -------
 Charge =  0 Multiplicity = 1
 Symbolic Z-Matrix:
 6                    -2.12377   0.30245  -0.50205 
 6                    -1.31697   0.60629   0.76654 
 6                    -0.62173  -1.36135   0.0172 
 6                     1.18191   0.32715   0.43009 
 6                     0.80738  -0.91939  -0.37399 
 6                     0.02709   1.35427   0.51409 
 8                    -1.02216  -0.733     1.22373 
 8                    -1.55682  -0.93671  -0.96946 
 8                    -0.03591   2.11644  -0.6839 
 8                     2.32369   0.91638  -0.20598 
 8                     1.70138  -1.99244  -0.09494 
 1                    -2.02219   1.06869  -1.27046 
 1                    -3.18126   0.14793  -0.26028 
 1                    -1.90965   1.09381   1.54078 
 1                    -0.67655  -2.44548   0.14487 
 1                     1.43631  -0.00376   1.44176 
 1                     0.81608  -0.67959  -1.44539 
 1                     0.89551   2.20927  -0.96301 
 1                     2.81625   1.42435   0.45948 
 1                     2.59557  -1.65938  -0.28038 
 1                     0.22512   2.02225   1.36574 
 
                          Input orientation:                          
 ---------------------------------------------------------------------
 Center     Atomic      Atomic             Coordinates (Angstroms)
 Number     Number       Type             X           Y           Z
 ---------------------------------------------------------------------
      1          6           0       -2.123773    0.302453   -0.502051
      2          6           0       -1.316970    0.606290    0.766540
      3          6           0       -0.621731   -1.361346    0.017200
      4          6           0        1.181909    0.327153    0.430091
      5          6           0        0.807382   -0.919394   -0.373990
      6          6           0        0.027085    1.354273    0.514085
      7          8           0       -1.022158   -0.733000    1.223731
      8          8           0       -1.556824   -0.936714   -0.969460
      9          8           0       -0.035906    2.116441   -0.683895
     10          8           0        2.323688    0.916380   -0.205977
     11          8           0        1.701375   -1.992443   -0.094944
     12          1           0       -2.022192    1.068691   -1.270462
     13          1           0       -3.181255    0.147925   -0.260276
     14          1           0       -1.909649    1.093812    1.540776
     15          1           0       -0.676546   -2.445481    0.144873
     16          1           0        1.436308   -0.003757    1.441764
     17          1           0        0.816083   -0.679585   -1.445389
     18          1           0        0.895506    2.209275   -0.963012
     19          1           0        2.816251    1.424352    0.459477
     20          1           0        2.595565   -1.659384   -0.280376
     21          1           0        0.225115    2.022253    1.365743
 ---------------------------------------------------------------------
                    Distance matrix (angstroms):
                    1          2          3          4          5
     1  C    0.000000
     2  C    1.533809   0.000000
     3  C    2.300865   2.217309   0.000000
     4  C    3.434681   2.536831   2.504920   0.000000
     5  C    3.178204   2.853312   1.546194   1.529933   0.000000
     6  C    2.600971   1.558748   2.835920   1.547788   2.562636
     7  O    2.294350   1.445557   1.418054   2.571323   2.436118
     8  O    1.440638   2.334971   1.424152   3.325171   2.438105
     9  O    2.771788   2.454678   3.595793   2.434253   3.165986
    10  O    4.499386   3.781050   3.730059   1.433677   2.386939
    11  O    4.479290   4.075043   2.409913   2.434344   1.424263
    12  H    1.089906   2.204661   3.086170   3.702435   3.572483
    13  H    1.095720   2.177156   2.984301   4.421078   4.130536
    14  H    2.201191   1.090132   3.163513   3.373295   3.886076
    15  H    3.172399   3.179610   1.093002   3.350030   2.190936
    16  H    4.067721   2.899763   2.847447   1.094396   2.128591
    17  H    3.239913   3.331069   2.161313   2.159809   1.097943
    18  H    3.600625   3.233568   4.001519   2.359056   3.184852
    19  H    5.156261   4.224574   4.446959   1.968701   3.197400
    20  H    5.115672   4.640823   3.244745   2.539590   1.937511
    21  H    3.458850   2.177618   3.739580   2.159691   3.466842
                    6          7          8          9         10
     6  C    0.000000
     7  O    2.441560   0.000000
     8  O    3.155677   2.266595   0.000000
     9  O    1.421275   3.568059   3.422937   0.000000
    10  O    2.446349   3.994897   4.367521   2.690025   0.000000
    11  O    3.791394   3.277611   3.534855   4.499771   2.976719
    12  H    2.732344   3.235299   2.080581   2.321028   4.476941
    13  H    3.514023   2.764056   2.078018   3.734666   5.558585
    14  H    2.207458   2.055578   3.247893   3.083155   4.582987
    15  H    3.881951   2.053284   2.071957   4.680642   4.519581
    16  H    2.165812   2.573595   3.955155   3.343812   2.085461
    17  H    2.932343   3.241325   2.433785   3.020516   2.521135
    18  H    1.914941   4.137180   3.988886   0.976756   2.069875
    19  H    2.790581   4.468964   5.171100   3.149776   0.971330
    20  H    4.038612   4.025971   4.270764   4.619992   2.591141
    21  H    1.100334   3.027751   4.169408   2.068337   2.845570
                   11         12         13         14         15
    11  O    0.000000
    12  H    4.961586   0.000000
    13  H    5.333722   1.792125   0.000000
    14  H    5.023947   2.813602   2.399057   0.000000
    15  H    2.432543   4.020366   3.628149   3.999460   0.000000
    16  H    2.527173   4.524106   4.923600   3.522767   3.479669
    17  H    2.081115   3.338094   4.250644   4.414944   2.806290
    18  H    4.365478   3.147764   4.622011   3.922003   5.036418
    19  H    3.636594   5.150700   6.173928   4.859279   5.222472
    20  H    0.972054   5.454021   6.052968   5.585126   3.391975
    21  H    4.520037   3.592944   4.214309   2.334493   4.718492
                   16         17         18         19         20
    16  H    0.000000
    17  H    3.029369   0.000000
    18  H    3.312541   2.929933   0.000000
    19  H    2.215542   3.472137   2.515719   0.000000
    20  H    2.655324   2.341755   4.280504   3.178917   0.000000
    21  H    2.361670   3.943556   2.430535   2.809411   4.677947
                   21
    21  H    0.000000
 Stoichiometry    C6H10O5
 Framework group  C1[X(C6H10O5)]
 Deg. of freedom    57
 Full point group                 C1      NOp   1
 Largest Abelian subgroup         C1      NOp   1
 Largest concise Abelian subgroup C1      NOp   1
                         Standard orientation:                         
 ---------------------------------------------------------------------
 Center     Atomic      Atomic             Coordinates (Angstroms)
 Number     Number       Type             X           Y           Z
 ---------------------------------------------------------------------
      1          6           0       -2.123773    0.302454   -0.502051
      2          6           0       -1.316970    0.606290    0.766540
      3          6           0       -0.621731   -1.361346    0.017200
      4          6           0        1.181909    0.327153    0.430091
      5          6           0        0.807382   -0.919394   -0.373990
      6          6           0        0.027085    1.354273    0.514085
      7          8           0       -1.022158   -0.733000    1.223731
      8          8           0       -1.556824   -0.936714   -0.969460
      9          8           0       -0.035906    2.116441   -0.683895
     10          8           0        2.323688    0.916380   -0.205977
     11          8           0        1.701375   -1.992443   -0.094944
     12          1           0       -2.022192    1.068692   -1.270462
     13          1           0       -3.181255    0.147926   -0.260276
     14          1           0       -1.909649    1.093813    1.540776
     15          1           0       -0.676546   -2.445481    0.144873
     16          1           0        1.436308   -0.003757    1.441764
     17          1           0        0.816083   -0.679585   -1.445389
     18          1           0        0.895506    2.209275   -0.963012
     19          1           0        2.816251    1.424352    0.459477
     20          1           0        2.595565   -1.659384   -0.280376
     21          1           0        0.225115    2.022253    1.365743
 ---------------------------------------------------------------------
 Rotational constants (GHZ):      1.5274064      1.2477904      0.8649567
 Standard basis: 6-31+G(d,p) (6D, 7F)
 There are   259 symmetry adapted basis functions of A   symmetry.
 Integral buffers will be    131072 words long.
 Raffenetti 2 integral format.
 Two-electron integral symmetry is turned on.
   259 basis functions,   422 primitive gaussians,   259 cartesian basis functions
    43 alpha electrons       43 beta electrons
       nuclear repulsion energy       724.7919173032 Hartrees.
 NAtoms=   21 NActive=   21 NUniq=   21 SFac= 1.00D+00 NAtFMM=   60 NAOKFM=F Big=F
 ------------------------------------------------------------------------------
 Polarizable Continuum Model (PCM)
 =================================
 Model                : PCM.
 Atomic radii         : UFF (Universal Force Field).
 Polarization charges : Total charges.
 Charge compensation  : None.
 Solution method      : Matrix inversion.
 Cavity type          : Scaled VdW (van der Waals Surface) (Alpha=1.100).
 Cavity algorithm     : GePol (No added spheres)
                        Default sphere list used, NSphG=   21.
                        Lebedev-Laikov grids with approx.  5.0 points / Ang**2.
                        Smoothing algorithm: Karplus/York (Gamma=1.0000).
                        Polarization charges: spherical gaussians, with
                                              point-specific exponents (IZeta= 3).
                        Self-potential: point-specific (ISelfS= 7).
                        Self-field    : sphere-specific E.n sum rule (ISelfD= 2).
 Solvent              : Water, Eps=  78.355300 Eps(inf)=   1.777849
 ------------------------------------------------------------------------------
 One-electron integrals computed using PRISM.
 NBasis=   259 RedAO= T  NBF=   259
 NBsUse=   259 1.00D-06 NBFU=   259
 Harris functional with IExCor=  908 diagonalized for initial guess.
 ExpMin= 4.38D-02 ExpMax= 5.48D+03 ExpMxC= 8.25D+02 IAcc=2 IRadAn=         4 AccDes= 0.00D+00
 HarFok:  IExCor=  908 AccDes= 0.00D+00 IRadAn=         4 IDoV= 1
 ScaDFX=  1.000000  1.000000  1.000000  1.000000
 FoFCou: FMM=F IPFlag=           0 FMFlag=      100000 FMFlg1=           0
         NFxFlg=           0 DoJE=T BraDBF=F KetDBF=T FulRan=T
         Omega=  0.000000  0.000000  1.000000  0.000000  0.000000 ICntrl=     500 IOpCl=  0
         NMat0=    1 NMatS0=    1 NMatT0=    0 NMatD0=    1 NMtDS0=    0 NMtDT0=    0
         I1Cent=           4 NGrid=           0.
 Petite list used in FoFCou.
 Initial guess orbital symmetries:
       Occupied  (A) (A) (A) (A) (A) (A) (A) (A) (A) (A) (A) (A)
                 (A) (A) (A) (A) (A) (A) (A) (A) (A) (A) (A) (A)
                 (A) (A) (A) (A) (A) (A) (A) (A) (A) (A) (A) (A)
                 (A) (A) (A) (A) (A) (A) (A)
       Virtual   (A) (A) (A) (A) (A) (A) (A) (A) (A) (A) (A) (A)
                 (A) (A) (A) (A) (A) (A) (A) (A) (A) (A) (A) (A)
                 (A) (A) (A) (A) (A) (A) (A) (A) (A) (A) (A) (A)
                 (A) (A) (A) (A) (A) (A) (A) (A) (A) (A) (A) (A)
                 (A) (A) (A) (A) (A) (A) (A) (A) (A) (A) (A) (A)
                 (A) (A) (A) (A) (A) (A) (A) (A) (A) (A) (A) (A)
                 (A) (A) (A) (A) (A) (A) (A) (A) (A) (A) (A) (A)
                 (A) (A) (A) (A) (A) (A) (A) (A) (A) (A) (A) (A)
                 (A) (A) (A) (A) (A) (A) (A) (A) (A) (A) (A) (A)
                 (A) (A) (A) (A) (A) (A) (A) (A) (A) (A) (A) (A)
                 (A) (A) (A) (A) (A) (A) (A) (A) (A) (A) (A) (A)
                 (A) (A) (A) (A) (A) (A) (A) (A) (A) (A) (A) (A)
                 (A) (A) (A) (A) (A) (A) (A) (A) (A) (A) (A) (A)
                 (A) (A) (A) (A) (A) (A) (A) (A) (A) (A) (A) (A)
                 (A) (A) (A) (A) (A) (A) (A) (A) (A) (A) (A) (A)
                 (A) (A) (A) (A) (A) (A) (A) (A) (A) (A) (A) (A)
                 (A) (A) (A) (A) (A) (A) (A) (A) (A) (A) (A) (A)
                 (A) (A) (A) (A) (A) (A) (A) (A) (A) (A) (A) (A)
 The electronic state of the initial guess is 1-A.
 Requested convergence on RMS density matrix=1.00D-08 within 128 cycles.
 Requested convergence on MAX density matrix=1.00D-06.
 Requested convergence on             energy=1.00D-06.
 No special actions if energy rises.
 Error on total polarization charges =  0.01159
 SCF Done:  E(RmPW1PW91) =  -610.643719954     A.U. after   12 cycles
             Convg  =    0.4655D-08             -V/T =  2.0090
 Range of M.O.s used for correlation:     1   259
 NBasis=   259 NAE=    43 NBE=    43 NFC=     0 NFV=     0
 NROrb=    259 NOA=    43 NOB=    43 NVA=   216 NVB=   216

 **** Warning!!: The largest alpha MO coefficient is  0.65686625D+02

 NEqPCM:  Using equilibrium solvation (IEInf=0, Eps=  78.3553, EpsInf=   1.7778)
          Differentiating once with respect to magnetic field using GIAOs.
          Electric field/nuclear overlap derivatives assumed to be zero.
 FoFCou: FMM=F IPFlag=           0 FMFlag=    10101102 FMFlg1=           0
         NFxFlg=    40000000 DoJE=F BraDBF=F KetDBF=T FulRan=T
         Omega=  0.000000  0.000000  1.000000  0.000000  0.000000 ICntrl=    6100 IOpCl=  0
         NMat0=    1 NMatS0=    1 NMatT0=    0 NMatD0=    1 NMtDS0=    0 NMtDT0=    0
         I1Cent=           7 NGrid=        1548.
 Symmetry not used in FoFCou.
          There are     3 degrees of freedom in the 1st order CPHF.  IDoFFX=0.
      3 vectors produced by pass  0 Test12= 3.10D-13 3.33D-08 XBig12= 2.37D+01 1.12D+00.
 AX will form     3 AO Fock derivatives at one time.
      3 vectors produced by pass  1 Test12= 3.10D-13 3.33D-08 XBig12= 5.60D-02 3.15D-02.
      3 vectors produced by pass  2 Test12= 3.10D-13 3.33D-08 XBig12= 1.38D-04 1.51D-03.
      3 vectors produced by pass  3 Test12= 3.10D-13 3.33D-08 XBig12= 6.64D-07 1.08D-04.
      3 vectors produced by pass  4 Test12= 3.10D-13 3.33D-08 XBig12= 2.04D-09 6.14D-06.
      3 vectors produced by pass  5 Test12= 3.10D-13 3.33D-08 XBig12= 6.20D-12 3.82D-07.
 Inverted reduced A of dimension    18 with in-core refinement.
 Calculating GIAO nuclear magnetic shielding tensors.
 SCF GIAO Magnetic shielding tensor (ppm):
      1  C    Isotropic =   133.9100   Anisotropy =    66.4687
   XX=   120.9681   YX=   -26.0522   ZX=    -1.8248
   XY=   -21.0729   YY=   157.8936   ZY=    28.2987
   XZ=    -4.6970   YZ=    17.4548   ZZ=   122.8685
   Eigenvalues:   104.7689   118.7387   178.2225
      2  C    Isotropic =   118.8868   Anisotropy =    54.3641
   XX=   103.9319   YX=    -1.8154   ZX=    19.5310
   XY=    -8.8618   YY=   145.8534   ZY=   -15.5515
   XZ=    10.0114   YZ=   -20.5391   ZZ=   106.8751
   Eigenvalues:    89.1580   112.3729   155.1295
      3  C    Isotropic =    91.0155   Anisotropy =    24.6786
   XX=    95.4794   YX=   -16.5066   ZX=    11.4829
   XY=    -9.2348   YY=    76.7672   ZY=    -0.6284
   XZ=     4.8385   YZ=     9.4823   ZZ=   100.8001
   Eigenvalues:    68.3609    97.2178   107.4679
      4  C    Isotropic =   121.9297   Anisotropy =    33.9310
   XX=   125.2651   YX=    11.0004   ZX=    -6.6561
   XY=     9.9482   YY=   130.0176   ZY=    -4.5068
   XZ=   -16.7932   YZ=   -13.6145   ZZ=   110.5065
   Eigenvalues:   103.6181   117.6207   144.5504
      5  C    Isotropic =   118.8889   Anisotropy =    30.3618
   XX=   133.3872   YX=   -18.3553   ZX=     6.9594
   XY=     1.0991   YY=   112.5947   ZY=    -1.0734
   XZ=     7.3206   YZ=   -10.0670   ZZ=   110.6848
   Eigenvalues:   105.9877   111.5489   139.1301
      6  C    Isotropic =   128.7025   Anisotropy =    38.1957
   XX=   119.5967   YX=     0.3136   ZX=     0.4546
   XY=    -3.4833   YY=   129.8682   ZY=   -24.6129
   XZ=     5.8888   YZ=   -15.9604   ZZ=   136.6425
   Eigenvalues:   112.5829   119.3583   154.1663
      7  O    Isotropic =   244.2779   Anisotropy =    62.6096
   XX=   233.8443   YX=   -34.6020   ZX=    -0.3873
   XY=   -36.2857   YY=   218.5057   ZY=     4.4367
   XZ=    31.8277   YZ=     5.1528   ZZ=   280.4836
   Eigenvalues:   187.8877   258.9283   286.0176
      8  O    Isotropic =   256.0467   Anisotropy =   124.5814
   XX=   253.5899   YX=   -50.1608   ZX=    48.0731
   XY=   -40.0652   YY=   196.8876   ZY=    15.3787
   XZ=    36.3528   YZ=    46.0165   ZZ=   317.6626
   Eigenvalues:   157.6238   271.4152   339.1010
      9  O    Isotropic =   310.8859   Anisotropy =    46.2657
   XX=   336.8805   YX=     9.0930   ZX=     0.2343
   XY=    23.1197   YY=   284.8216   ZY=    20.1221
   XZ=     1.7596   YZ=    -6.3203   ZZ=   310.9555
   Eigenvalues:   278.9697   311.9583   341.7297
     10  O    Isotropic =   315.7831   Anisotropy =    89.1927
   XX=   304.4235   YX=    29.8734   ZX=    14.0984
   XY=    47.9223   YY=   316.4541   ZY=    16.4502
   XZ=    32.0606   YZ=    36.7830   ZZ=   326.4718
   Eigenvalues:   271.0775   301.0269   375.2449
     11  O    Isotropic =   296.3924   Anisotropy =    59.5678
   XX=   332.9757   YX=    -1.7080   ZX=     6.5785
   XY=     8.4433   YY=   288.1996   ZY=     0.5487
   XZ=    22.1862   YZ=   -12.7629   ZZ=   268.0019
   Eigenvalues:   263.1777   289.8952   336.1043
     12  H    Isotropic =    26.9604   Anisotropy =     5.9681
   XX=    26.8650   YX=    -0.0684   ZX=     1.9484
   XY=    -0.4779   YY=    28.8333   ZY=    -3.8921
   XZ=     2.5254   YZ=    -1.9569   ZZ=    25.1828
   Eigenvalues:    22.7134    27.2286    30.9391
     13  H    Isotropic =    28.0268   Anisotropy =    11.7106
   XX=    35.2133   YX=    -1.8379   ZX=    -0.1094
   XY=    -2.6182   YY=    25.2222   ZY=     2.0319
   XZ=    -1.8626   YZ=     1.4212   ZZ=    23.6448
   Eigenvalues:    22.5228    25.7238    35.8338
     14  H    Isotropic =    26.6966   Anisotropy =     8.2673
   XX=    26.7154   YX=    -2.1694   ZX=    -3.9794
   XY=    -1.2655   YY=    26.7943   ZY=     3.6588
   XZ=    -3.0269   YZ=     2.2871   ZZ=    26.5800
   Eigenvalues:    22.8054    25.0762    32.2081
     15  H    Isotropic =    26.2274   Anisotropy =     6.4843
   XX=    25.0643   YX=     0.0205   ZX=     0.5471
   XY=    -0.1293   YY=    30.5474   ZY=     0.1601
   XZ=     0.2864   YZ=    -0.4166   ZZ=    23.0706
   Eigenvalues:    22.9852    25.1467    30.5503
     16  H    Isotropic =    27.9382   Anisotropy =     3.2455
   XX=    28.9999   YX=     1.3641   ZX=    -0.0302
   XY=     0.2571   YY=    25.4863   ZY=    -1.7271
   XZ=     1.0242   YZ=    -1.9758   ZZ=    29.3284
   Eigenvalues:    24.5419    29.1709    30.1019
     17  H    Isotropic =    28.0222   Anisotropy =     3.5956
   XX=    28.1548   YX=    -2.1904   ZX=     0.9081
   XY=    -3.2185   YY=    27.0113   ZY=    -0.1994
   XZ=     0.1051   YZ=     0.4094   ZZ=    28.9003
   Eigenvalues:    24.7797    28.8675    30.4192
     18  H    Isotropic =    28.2663   Anisotropy =    17.9326
   XX=    38.4760   YX=     0.8762   ZX=    -4.4697
   XY=     0.9042   YY=    23.9084   ZY=    -6.5872
   XZ=    -5.1887   YZ=    -5.2778   ZZ=    22.4144
   Eigenvalues:    16.7342    27.8433    40.2213
     19  H    Isotropic =    29.9357   Anisotropy =    22.4620
   XX=    32.7816   YX=     8.8245   ZX=     6.1845
   XY=     8.8606   YY=    27.2758   ZY=     6.8441
   XZ=     7.0084   YZ=     6.2950   ZZ=    29.7495
   Eigenvalues:    20.3777    24.5190    44.9103
     20  H    Isotropic =    29.4431   Anisotropy =    18.1413
   XX=    40.8604   YX=     1.5938   ZX=    -3.8844
   XY=     0.7555   YY=    27.8422   ZY=    -1.5527
   XZ=    -3.0974   YZ=     0.1661   ZZ=    19.6268
   Eigenvalues:    19.0391    27.7529    41.5373
     21  H    Isotropic =    27.2779   Anisotropy =     7.9883
   XX=    23.6175   YX=     0.6482   ZX=     0.8079
   XY=     0.9643   YY=    27.1320   ZY=     2.3558
   XZ=    -0.0616   YZ=     3.2762   ZZ=    31.0840
   Eigenvalues:    23.4314    25.7988    32.6034
 End of Minotr Frequency-dependent properties file   721 does not exist.
 End of Minotr Frequency-dependent properties file   722 does not exist.

 **********************************************************************

            Population analysis using the SCF density.

 **********************************************************************

 Orbital symmetries:
       Occupied  (A) (A) (A) (A) (A) (A) (A) (A) (A) (A) (A) (A)
                 (A) (A) (A) (A) (A) (A) (A) (A) (A) (A) (A) (A)
                 (A) (A) (A) (A) (A) (A) (A) (A) (A) (A) (A) (A)
                 (A) (A) (A) (A) (A) (A) (A)
       Virtual   (A) (A) (A) (A) (A) (A) (A) (A) (A) (A) (A) (A)
                 (A) (A) (A) (A) (A) (A) (A) (A) (A) (A) (A) (A)
                 (A) (A) (A) (A) (A) (A) (A) (A) (A) (A) (A) (A)
                 (A) (A) (A) (A) (A) (A) (A) (A) (A) (A) (A) (A)
                 (A) (A) (A) (A) (A) (A) (A) (A) (A) (A) (A) (A)
                 (A) (A) (A) (A) (A) (A) (A) (A) (A) (A) (A) (A)
                 (A) (A) (A) (A) (A) (A) (A) (A) (A) (A) (A) (A)
                 (A) (A) (A) (A) (A) (A) (A) (A) (A) (A) (A) (A)
                 (A) (A) (A) (A) (A) (A) (A) (A) (A) (A) (A) (A)
                 (A) (A) (A) (A) (A) (A) (A) (A) (A) (A) (A) (A)
                 (A) (A) (A) (A) (A) (A) (A) (A) (A) (A) (A) (A)
                 (A) (A) (A) (A) (A) (A) (A) (A) (A) (A) (A) (A)
                 (A) (A) (A) (A) (A) (A) (A) (A) (A) (A) (A) (A)
                 (A) (A) (A) (A) (A) (A) (A) (A) (A) (A) (A) (A)
                 (A) (A) (A) (A) (A) (A) (A) (A) (A) (A) (A) (A)
                 (A) (A) (A) (A) (A) (A) (A) (A) (A) (A) (A) (A)
                 (A) (A) (A) (A) (A) (A) (A) (A) (A) (A) (A) (A)
                 (A) (A) (A) (A) (A) (A) (A) (A) (A) (A) (A) (A)
 The electronic state is 1-A.
 Alpha  occ. eigenvalues --  -19.27772 -19.27756 -19.26600 -19.26376 -19.25852
 Alpha  occ. eigenvalues --  -10.35917 -10.31915 -10.31587 -10.31467 -10.31033
 Alpha  occ. eigenvalues --  -10.30119  -1.14173  -1.09114  -1.06837  -1.05501
 Alpha  occ. eigenvalues --   -1.03948  -0.81765  -0.81077  -0.70543  -0.68863
 Alpha  occ. eigenvalues --   -0.64131  -0.59679  -0.57613  -0.56610  -0.54039
 Alpha  occ. eigenvalues --   -0.52225  -0.50929  -0.49450  -0.47560  -0.46020
 Alpha  occ. eigenvalues --   -0.44618  -0.43637  -0.42008  -0.40302  -0.38128
 Alpha  occ. eigenvalues --   -0.37388  -0.36923  -0.36305  -0.33594  -0.32075
 Alpha  occ. eigenvalues --   -0.29765  -0.29342  -0.28044
 Alpha virt. eigenvalues --    0.00221   0.01323   0.02132   0.02528   0.03903
 Alpha virt. eigenvalues --    0.04573   0.04963   0.05543   0.05927   0.08152
 Alpha virt. eigenvalues --    0.08383   0.09148   0.09701   0.10426   0.11433
 Alpha virt. eigenvalues --    0.12336   0.12527   0.13228   0.13955   0.14480
 Alpha virt. eigenvalues --    0.14930   0.15405   0.16165   0.16723   0.16941
 Alpha virt. eigenvalues --    0.17819   0.18816   0.19750   0.20190   0.20636
 Alpha virt. eigenvalues --    0.21755   0.22348   0.23070   0.23950   0.24123
 Alpha virt. eigenvalues --    0.24627   0.25238   0.26396   0.27178   0.27477
 Alpha virt. eigenvalues --    0.27952   0.28555   0.29679   0.29835   0.30390
 Alpha virt. eigenvalues --    0.31154   0.32164   0.32906   0.33127   0.34089
 Alpha virt. eigenvalues --    0.35014   0.35609   0.35884   0.36322   0.36788
 Alpha virt. eigenvalues --    0.37630   0.38511   0.39241   0.40020   0.40554
 Alpha virt. eigenvalues --    0.42289   0.42711   0.44526   0.45349   0.45844
 Alpha virt. eigenvalues --    0.47474   0.65334   0.66387   0.68650   0.69696
 Alpha virt. eigenvalues --    0.72071   0.74859   0.76231   0.76617   0.77885
 Alpha virt. eigenvalues --    0.79651   0.81227   0.82113   0.83466   0.84286
 Alpha virt. eigenvalues --    0.86267   0.91130   0.93441   0.95897   0.98626
 Alpha virt. eigenvalues --    0.99703   1.02803   1.04448   1.05052   1.07517
 Alpha virt. eigenvalues --    1.08285   1.09278   1.10178   1.10761   1.16111
 Alpha virt. eigenvalues --    1.18902   1.21771   1.23870   1.26170   1.28129
 Alpha virt. eigenvalues --    1.28907   1.30370   1.32247   1.33071   1.33990
 Alpha virt. eigenvalues --    1.35390   1.37130   1.37704   1.38644   1.42553
 Alpha virt. eigenvalues --    1.43393   1.44661   1.47655   1.49372   1.49642
 Alpha virt. eigenvalues --    1.53345   1.54494   1.57560   1.59581   1.61132
 Alpha virt. eigenvalues --    1.62552   1.63051   1.65613   1.68079   1.69789
 Alpha virt. eigenvalues --    1.71150   1.75666   1.77017   1.78172   1.78717
 Alpha virt. eigenvalues --    1.81934   1.82910   1.83992   1.85295   1.86040
 Alpha virt. eigenvalues --    1.89947   1.91429   1.95451   1.97218   1.97502
 Alpha virt. eigenvalues --    1.99929   2.01243   2.03890   2.06375   2.07230
 Alpha virt. eigenvalues --    2.09722   2.11109   2.14103   2.15124   2.17170
 Alpha virt. eigenvalues --    2.18898   2.22370   2.24891   2.29713   2.31970
 Alpha virt. eigenvalues --    2.34509   2.35517   2.37068   2.40727   2.43817
 Alpha virt. eigenvalues --    2.45804   2.47364   2.48882   2.51386   2.52465
 Alpha virt. eigenvalues --    2.56380   2.59135   2.60963   2.61248   2.63426
 Alpha virt. eigenvalues --    2.65442   2.66969   2.67157   2.69112   2.69554
 Alpha virt. eigenvalues --    2.70325   2.75139   2.77354   2.80173   2.81019
 Alpha virt. eigenvalues --    2.83310   2.86410   2.87927   2.88906   2.92476
 Alpha virt. eigenvalues --    2.94772   2.95985   2.98154   3.00376   3.03667
 Alpha virt. eigenvalues --    3.06296   3.09444   3.11746   3.12644   3.26737
 Alpha virt. eigenvalues --    3.36411   3.40456   3.42086   3.44460   3.49412
 Alpha virt. eigenvalues --    3.53083   3.54126   3.55139   3.56606   3.60623
 Alpha virt. eigenvalues --    4.30054   4.34392   4.40131   4.45985   4.53297
 Alpha virt. eigenvalues --    4.58597   4.62253   4.76191   4.82280   4.97957
 Alpha virt. eigenvalues --    5.03477
          Condensed to atoms (all electrons):
              1          2          3          4          5          6
     1  C    5.558136  -0.055742  -0.264372   0.139815   0.049751  -0.333185
     2  C   -0.055742   6.509906  -0.341141  -0.225921  -0.052374   0.002327
     3  C   -0.264372  -0.341141   6.349611  -0.258627  -0.456366   0.137501
     4  C    0.139815  -0.225921  -0.258627   6.269579   0.182233  -0.338410
     5  C    0.049751  -0.052374  -0.456366   0.182233   6.274193  -0.312866
     6  C   -0.333185   0.002327   0.137501  -0.338410  -0.312866   6.405272
     7  O   -0.026235   0.101554   0.336095  -0.000343  -0.145819  -0.157166
     8  O    0.172603  -0.129282   0.341825  -0.005302  -0.140295   0.049068
     9  O    0.047088  -0.210431  -0.047248   0.010193   0.069202   0.172221
    10  O   -0.000696   0.040526   0.051035   0.210265  -0.138349  -0.085795
    11  O    0.003211   0.000379  -0.166118  -0.141656   0.339271   0.053040
    12  H    0.484991  -0.144970   0.023146   0.003391  -0.002160   0.003393
    13  H    0.365755  -0.001855  -0.024036  -0.004572   0.011385   0.034791
    14  H    0.000361   0.314345   0.002458   0.017132   0.005247   0.003291
    15  H    0.009324   0.025907   0.341435   0.008475  -0.007257   0.001528
    16  H    0.010229  -0.026262   0.001692   0.375448  -0.064209   0.001347
    17  H    0.019741  -0.022678  -0.061432  -0.041746   0.371860   0.032067
    18  H   -0.003472   0.037402   0.003631  -0.062270  -0.020686   0.031008
    19  H    0.000773   0.006279  -0.007102   0.036341   0.027037  -0.058601
    20  H   -0.001747  -0.001254   0.034928  -0.030369  -0.017950   0.014701
    21  H    0.019545  -0.060397  -0.012634   0.035752   0.039844   0.296439
              7          8          9         10         11         12
     1  C   -0.026235   0.172603   0.047088  -0.000696   0.003211   0.484991
     2  C    0.101554  -0.129282  -0.210431   0.040526   0.000379  -0.144970
     3  C    0.336095   0.341825  -0.047248   0.051035  -0.166118   0.023146
     4  C   -0.000343  -0.005302   0.010193   0.210265  -0.141656   0.003391
     5  C   -0.145819  -0.140295   0.069202  -0.138349   0.339271  -0.002160
     6  C   -0.157166   0.049068   0.172221  -0.085795   0.053040   0.003393
     7  O    8.314945  -0.069555   0.017654  -0.000373   0.013707   0.012742
     8  O   -0.069555   8.296095   0.000124  -0.002611   0.005681  -0.047956
     9  O    0.017654   0.000124   8.325803  -0.035485  -0.002325  -0.003216
    10  O   -0.000373  -0.002611  -0.035485   8.326792  -0.009391   0.000096
    11  O    0.013707   0.005681  -0.002325  -0.009391   8.238541  -0.000003
    12  H    0.012742  -0.047956  -0.003216   0.000096  -0.000003   0.513007
    13  H   -0.007323  -0.049359  -0.000746  -0.000027   0.000032  -0.038259
    14  H   -0.037823   0.007945   0.005747  -0.000339   0.000080   0.002355
    15  H   -0.045912  -0.042538   0.000280  -0.000663  -0.000106  -0.000256
    16  H    0.008080  -0.000463   0.007032  -0.038690   0.000554  -0.000005
    17  H    0.012013  -0.007600   0.003246   0.001593  -0.038148  -0.000004
    18  H   -0.000555  -0.001108   0.232993   0.035280  -0.000018   0.000358
    19  H    0.000231  -0.000024   0.003000   0.248565  -0.000246  -0.000001
    20  H   -0.001370  -0.000125  -0.000231   0.014365   0.241025   0.000000
    21  H    0.006288  -0.001019  -0.042635  -0.007240  -0.001025   0.000004
             13         14         15         16         17         18
     1  C    0.365755   0.000361   0.009324   0.010229   0.019741  -0.003472
     2  C   -0.001855   0.314345   0.025907  -0.026262  -0.022678   0.037402
     3  C   -0.024036   0.002458   0.341435   0.001692  -0.061432   0.003631
     4  C   -0.004572   0.017132   0.008475   0.375448  -0.041746  -0.062270
     5  C    0.011385   0.005247  -0.007257  -0.064209   0.371860  -0.020686
     6  C    0.034791   0.003291   0.001528   0.001347   0.032067   0.031008
     7  O   -0.007323  -0.037823  -0.045912   0.008080   0.012013  -0.000555
     8  O   -0.049359   0.007945  -0.042538  -0.000463  -0.007600  -0.001108
     9  O   -0.000746   0.005747   0.000280   0.007032   0.003246   0.232993
    10  O   -0.000027  -0.000339  -0.000663  -0.038690   0.001593   0.035280
    11  O    0.000032   0.000080  -0.000106   0.000554  -0.038148  -0.000018
    12  H   -0.038259   0.002355  -0.000256  -0.000005  -0.000004   0.000358
    13  H    0.546005  -0.003954   0.000395   0.000000  -0.000052  -0.000009
    14  H   -0.003954   0.494717  -0.000020  -0.000021   0.000025  -0.000242
    15  H    0.000395  -0.000020   0.521418  -0.000087   0.000449  -0.000007
    16  H    0.000000  -0.000021  -0.000087   0.530479   0.004269   0.000872
    17  H   -0.000052   0.000025   0.000449   0.004269   0.542398   0.000220
    18  H   -0.000009  -0.000242  -0.000007   0.000872   0.000220   0.356085
    19  H    0.000000   0.000000   0.000005  -0.007235   0.000107  -0.002500
    20  H    0.000000  -0.000001  -0.000008  -0.000912  -0.004649   0.000019
    21  H   -0.000075  -0.006634   0.000001  -0.004405  -0.000168  -0.001512
             19         20         21
     1  C    0.000773  -0.001747   0.019545
     2  C    0.006279  -0.001254  -0.060397
     3  C   -0.007102   0.034928  -0.012634
     4  C    0.036341  -0.030369   0.035752
     5  C    0.027037  -0.017950   0.039844
     6  C   -0.058601   0.014701   0.296439
     7  O    0.000231  -0.001370   0.006288
     8  O   -0.000024  -0.000125  -0.001019
     9  O    0.003000  -0.000231  -0.042635
    10  O    0.248565   0.014365  -0.007240
    11  O   -0.000246   0.241025  -0.001025
    12  H   -0.000001   0.000000   0.000004
    13  H    0.000000   0.000000  -0.000075
    14  H    0.000000  -0.000001  -0.006634
    15  H    0.000005  -0.000008   0.000001
    16  H   -0.007235  -0.000912  -0.004405
    17  H    0.000107  -0.004649  -0.000168
    18  H   -0.002500   0.000019  -0.001512
    19  H    0.343298  -0.000859   0.002292
    20  H   -0.000859   0.370314  -0.000001
    21  H    0.002292  -0.000001   0.569760
 Mulliken atomic charges:
              1
     1  C   -0.195876
     2  C    0.233683
     3  C    0.015718
     4  C   -0.179410
     5  C   -0.011693
     6  C    0.048030
     7  O   -0.330835
     8  O   -0.376106
     9  O   -0.552266
    10  O   -0.608857
    11  O   -0.536486
    12  H    0.193344
    13  H    0.171908
    14  H    0.195329
    15  H    0.187638
    16  H    0.202288
    17  H    0.188491
    18  H    0.394512
    19  H    0.408640
    20  H    0.384125
    21  H    0.167821
 Sum of Mulliken atomic charges =   0.00000
 Mulliken charges with hydrogens summed into heavy atoms:
              1
     1  C    0.169376
     2  C    0.429012
     3  C    0.203356
     4  C    0.022879
     5  C    0.176799
     6  C    0.215851
     7  O   -0.330835
     8  O   -0.376106
     9  O   -0.157754
    10  O   -0.200217
    11  O   -0.152361
 Sum of Mulliken charges with hydrogens summed into heavy atoms =   0.00000
 Electronic spatial extent (au):  <R**2>=           1445.9668
 Charge=              0.0000 electrons
 Dipole moment (field-independent basis, Debye):
    X=              2.5832    Y=              3.5998    Z=              2.3381  Tot=              5.0098
 Quadrupole moment (field-independent basis, Debye-Ang):
   XX=            -54.8675   YY=            -69.4571   ZZ=            -66.9418
   XY=              2.5241   XZ=              0.7705   YZ=              4.8660
 Traceless Quadrupole moment (field-independent basis, Debye-Ang):
   XX=              8.8880   YY=             -5.7016   ZZ=             -3.1864
   XY=              2.5241   XZ=              0.7705   YZ=              4.8660
 Octapole moment (field-independent basis, Debye-Ang**2):
  XXX=             27.0197  YYY=              6.8095  ZZZ=             -1.1278  XYY=              9.5284
  XXY=             18.1357  XXZ=             10.8530  XZZ=             10.1921  YZZ=             10.7184
  YYZ=              6.5465  XYZ=              4.6550
 Hexadecapole moment (field-independent basis, Debye-Ang**3):
 XXXX=           -722.7587 YYYY=           -710.8461 ZZZZ=           -255.9175 XXXY=             -6.3305
 XXXZ=             18.1171 YYYX=             62.6885 YYYZ=              4.2835 ZZZX=             -2.9856
 ZZZY=              1.7228 XXYY=           -231.5088 XXZZ=           -183.3688 YYZZ=           -153.2953
 XXYZ=             14.9102 YYXZ=             -7.7325 ZZXY=             -4.8148
 N-N= 7.247919173032D+02 E-N=-2.879702669911D+03  KE= 6.052105895672D+02
 1\1\GINC-COMPUTE-8-11\SP\RmPW1PW91\6-31+G(d,p)\C6H10O5\MMARCARINO.IQUI
 R\12-Apr-2019\0\\# mpw1pw91/6-31+g** nmr scrf=(pcm,solvent=water)\\com
 ment\\0,1\C,0,-2.123773,0.302453,-0.502051\C,0,-1.31697,0.60629,0.7665
 4\C,0,-0.621731,-1.361346,0.0172\C,0,1.181909,0.327153,0.430091\C,0,0.
 807382,-0.919394,-0.37399\C,0,0.027085,1.354273,0.514085\O,0,-1.022158
 ,-0.733,1.223731\O,0,-1.556824,-0.936714,-0.96946\O,0,-0.035906,2.1164
 41,-0.683895\O,0,2.323688,0.91638,-0.205977\O,0,1.701375,-1.992443,-0.
 094944\H,0,-2.022192,1.068691,-1.270462\H,0,-3.181255,0.147925,-0.2602
 76\H,0,-1.909649,1.093812,1.540776\H,0,-0.676546,-2.445481,0.144873\H,
 0,1.436308,-0.003757,1.441764\H,0,0.816083,-0.679585,-1.445389\H,0,0.8
 95506,2.209275,-0.963012\H,0,2.816251,1.424352,0.459477\H,0,2.595565,-
 1.659384,-0.280376\H,0,0.225115,2.022253,1.365743\\Version=EM64L-G09Re
 vC.01\State=1-A\HF=-610.64372\RMSD=4.655e-09\Dipole=1.0162971,1.416282
 1,0.9198849\Quadrupole=6.607986,-4.2390045,-2.3689815,1.8766231,0.5728
 365,3.6177688\PG=C01 [X(C6H10O5)]\\@


 OLD AGE AND TREACHERY WILL ALWAYS PREVAIL OVER YOUTH AND SKILL.
 Job cpu time:  0 days  0 hours 20 minutes 21.9 seconds.
 File lengths (MBytes):  RWF=     84 Int=      0 D2E=      0 Chk=      5 Scr=      1
 Normal termination of Gaussian 09 at Fri Apr 12 10:36:19 2019.
