 Entering Gaussian System, Link 0=g09
 Input=/home/asarotti.iquir/SCF3/02_RSS_Levo01_OPTB_energy_b3lyp_smd.gjc
 Output=/home/asarotti.iquir/SCF3/02_RSS_Levo01_OPTB_energy_b3lyp_smd.log
 Initial command:
 /share/apps/Gaussian09/EM64T.SSE4.2-enabled/g09/l1.exe /tmp/Gau-4942.inp -scrdir=/tmp/
 Entering Link 1 = /share/apps/Gaussian09/EM64T.SSE4.2-enabled/g09/l1.exe PID=      4943.
  
 Copyright (c) 1988,1990,1992,1993,1995,1998,2003,2009,2011,
            Gaussian, Inc.  All Rights Reserved.
  
 This is part of the Gaussian(R) 09 program.  It is based on
 the Gaussian(R) 03 system (copyright 2003, Gaussian, Inc.),
 the Gaussian(R) 98 system (copyright 1998, Gaussian, Inc.),
 the Gaussian(R) 94 system (copyright 1995, Gaussian, Inc.),
 the Gaussian 92(TM) system (copyright 1992, Gaussian, Inc.),
 the Gaussian 90(TM) system (copyright 1990, Gaussian, Inc.),
 the Gaussian 88(TM) system (copyright 1988, Gaussian, Inc.),
 the Gaussian 86(TM) system (copyright 1986, Carnegie Mellon
 University), and the Gaussian 82(TM) system (copyright 1983,
 Carnegie Mellon University). Gaussian is a federally registered
 trademark of Gaussian, Inc.
  
 This software contains proprietary and confidential information,
 including trade secrets, belonging to Gaussian, Inc.
  
 This software is provided under written license and may be
 used, copied, transmitted, or stored only in accord with that
 written license.
  
 The following legend is applicable only to US Government
 contracts under FAR:
  
                    RESTRICTED RIGHTS LEGEND
  
 Use, reproduction and disclosure by the US Government is
 subject to restrictions as set forth in subparagraphs (a)
 and (c) of the Commercial Computer Software - Restricted
 Rights clause in FAR 52.227-19.
  
 Gaussian, Inc.
 340 Quinnipiac St., Bldg. 40, Wallingford CT 06492
  
  
 ---------------------------------------------------------------
 Warning -- This program may not be used in any manner that
 competes with the business of Gaussian, Inc. or will provide
 assistance to any competitor of Gaussian, Inc.  The licensee
 of this program is prohibited from giving any competitor of
 Gaussian, Inc. access to this program.  By using this program,
 the user acknowledges that Gaussian, Inc. is engaged in the
 business of creating and licensing software in the field of
 computational chemistry and represents and warrants to the
 licensee that it is not a competitor of Gaussian, Inc. and that
 it will not use this program in any manner prohibited above.
 ---------------------------------------------------------------
  

 Cite this work as:
 Gaussian 09, Revision C.01,
 M. J. Frisch, G. W. Trucks, H. B. Schlegel, G. E. Scuseria, 
 M. A. Robb, J. R. Cheeseman, G. Scalmani, V. Barone, B. Mennucci, 
 G. A. Petersson, H. Nakatsuji, M. Caricato, X. Li, H. P. Hratchian, 
 A. F. Izmaylov, J. Bloino, G. Zheng, J. L. Sonnenberg, M. Hada, 
 M. Ehara, K. Toyota, R. Fukuda, J. Hasegawa, M. Ishida, T. Nakajima, 
 Y. Honda, O. Kitao, H. Nakai, T. Vreven, J. A. Montgomery, Jr., 
 J. E. Peralta, F. Ogliaro, M. Bearpark, J. J. Heyd, E. Brothers, 
 K. N. Kudin, V. N. Staroverov, T. Keith, R. Kobayashi, J. Normand, 
 K. Raghavachari, A. Rendell, J. C. Burant, S. S. Iyengar, J. Tomasi, 
 M. Cossi, N. Rega, J. M. Millam, M. Klene, J. E. Knox, J. B. Cross, 
 V. Bakken, C. Adamo, J. Jaramillo, R. Gomperts, R. E. Stratmann, 
 O. Yazyev, A. J. Austin, R. Cammi, C. Pomelli, J. W. Ochterski, 
 R. L. Martin, K. Morokuma, V. G. Zakrzewski, G. A. Voth, 
 P. Salvador, J. J. Dannenberg, S. Dapprich, A. D. Daniels, 
 O. Farkas, J. B. Foresman, J. V. Ortiz, J. Cioslowski, 
 and D. J. Fox, Gaussian, Inc., Wallingford CT, 2010.
 
 ******************************************
 Gaussian 09:  EM64L-G09RevC.01 23-Sep-2011
                15-Apr-2019 
 ******************************************
 %nprocshared=4
 Will use up to    4 processors via shared memory.
 -----------------------------------------------------------
 # B3LYP/6-31+G** test scrf=(pcm,solvent=water,smd,dovacuum)
 -----------------------------------------------------------
 1/38=1/1;
 2/12=2,17=6,18=5,40=1/2;
 3/5=1,6=6,7=111,11=2,16=1,25=1,30=1,70=32101,72=1,74=-5/1,2,3;
 4//1;
 5/5=2,38=5,53=1/2;
 6/7=2,8=2,9=2,10=2,28=1/1;
 99/5=1,9=1/99;
 -------
 comment
 -------
 Charge =  0 Multiplicity = 1
 Symbolic Z-Matrix:
 6                    -2.13979   0.21511  -0.49993 
 6                    -1.34197   0.56163   0.76311 
 6                    -0.56623  -1.38007   0.02737 
 6                     1.1603    0.38677   0.4547 
 6                     0.84852  -0.86929  -0.36004 
 6                    -0.02931   1.3622    0.49674 
 8                    -0.99862  -0.7623    1.22932 
 8                    -1.51225  -0.99476  -0.9671 
 8                    -0.12316   2.08066  -0.72783 
 8                     2.2682    1.10633  -0.08092 
 8                     1.8896   -1.79714  -0.05433 
 1                    -2.08283   0.98171  -1.27233 
 1                    -3.18622   0.00813  -0.24904 
 1                    -1.95017   1.03331   1.53504 
 1                    -0.58293  -2.46525   0.16311 
 1                     1.37783   0.05902   1.47896 
 1                     0.84669  -0.62783  -1.42948 
 1                     0.80142   2.24676  -0.99038 
 1                     2.95166   0.44807  -0.29261 
 1                     1.90974  -2.47103  -0.75244 
 1                     0.1355    2.06672   1.3244 
 
                          Input orientation:                          
 ---------------------------------------------------------------------
 Center     Atomic      Atomic             Coordinates (Angstroms)
 Number     Number       Type             X           Y           Z
 ---------------------------------------------------------------------
      1          6           0       -2.139786    0.215106   -0.499930
      2          6           0       -1.341973    0.561627    0.763109
      3          6           0       -0.566231   -1.380070    0.027365
      4          6           0        1.160297    0.386768    0.454695
      5          6           0        0.848522   -0.869289   -0.360037
      6          6           0       -0.029314    1.362203    0.496742
      7          8           0       -0.998623   -0.762299    1.229317
      8          8           0       -1.512250   -0.994759   -0.967100
      9          8           0       -0.123155    2.080657   -0.727827
     10          8           0        2.268199    1.106334   -0.080923
     11          8           0        1.889604   -1.797142   -0.054327
     12          1           0       -2.082829    0.981708   -1.272326
     13          1           0       -3.186215    0.008131   -0.249043
     14          1           0       -1.950165    1.033314    1.535037
     15          1           0       -0.582927   -2.465250    0.163109
     16          1           0        1.377831    0.059019    1.478957
     17          1           0        0.846688   -0.627827   -1.429482
     18          1           0        0.801422    2.246764   -0.990382
     19          1           0        2.951664    0.448070   -0.292606
     20          1           0        1.909736   -2.471033   -0.752440
     21          1           0        0.135499    2.066720    1.324396
 ---------------------------------------------------------------------
                    Distance matrix (angstroms):
                    1          2          3          4          5
     1  C    0.000000
     2  C    1.533574   0.000000
     3  C    2.301891   2.216592   0.000000
     4  C    3.439669   2.527261   2.507035   0.000000
     5  C    3.182054   2.847323   1.553224   1.529271   0.000000
     6  C    2.600630   1.560432   2.833488   1.538966   2.546414
     7  O    2.290823   1.444998   1.418905   2.565410   2.439147
     8  O    1.440772   2.333443   1.425615   3.327555   2.440802
     9  O    2.756632   2.452725   3.569771   2.432050   3.127556
    10  O    4.516657   3.747324   3.771992   1.425521   2.448770
    11  O    4.525891   4.083514   2.492338   2.358062   1.427663
    12  H    1.089733   2.206430   3.093099   3.722153   3.584868
    13  H    1.095809   2.175325   2.977888   4.419364   4.130531
    14  H    2.201479   1.090073   3.164296   3.355612   3.878641
    15  H    3.169817   3.177756   1.093765   3.355273   2.206767
    16  H    4.039058   2.856989   2.820899   1.097202   2.126928
    17  H    3.239387   3.318508   2.164397   2.162840   1.096367
    18  H    3.608169   3.241691   4.007519   2.382567   3.179519
    19  H    5.100992   4.422980   3.977444   1.941961   2.482577
    20  H    4.865977   4.697609   2.815796   3.191529   1.961056
    21  H    3.454499   2.182492   3.749010   2.151471   3.459171
                    6          7          8          9         10
     6  C    0.000000
     7  O    2.447393   0.000000
     8  O    3.145982   2.267619   0.000000
     9  O    1.422867   3.560794   3.383049   0.000000
    10  O    2.382799   3.985053   4.414940   2.662023   0.000000
    11  O    3.737296   3.325733   3.612421   4.420648   2.928176
    12  H    2.737024   3.236554   2.079698   2.311815   4.512917
    13  H    3.515072   2.750394   2.079316   3.729200   5.566412
    14  H    2.208142   2.055024   3.250468   3.091189   4.517882
    15  H    3.881648   2.051742   2.074454   4.655151   4.576536
    16  H    2.154783   2.526740   3.930167   3.348115   2.079146
    17  H    2.904813   3.239208   2.431671   2.961216   2.616605
    18  H    1.919403   4.149902   3.982599   0.975382   2.068606
    19  H    3.216355   4.402955   4.739539   3.508457   0.972237
    20  H    4.473709   3.912248   3.733022   4.985091   3.657456
    21  H    1.099326   3.049364   4.163975   2.068506   2.728676
                   11         12         13         14         15
    11  O    0.000000
    12  H    4.998575   0.000000
    13  H    5.390813   1.792323   0.000000
    14  H    5.028060   2.810970   2.400367   0.000000
    15  H    2.570419   4.023891   3.614497   3.998934   0.000000
    16  H    2.461342   4.516313   4.880480   3.468134   3.456582
    17  H    2.084712   3.346247   4.249963   4.401153   2.820686
    18  H    4.291097   3.162082   4.632743   3.927013   5.044803
    19  H    2.495140   5.156621   6.153780   5.264097   4.603091
    20  H    0.970513   5.303987   5.689322   5.693139   2.655491
    21  H    4.461748   3.583461   4.212752   2.337155   4.733231
                   16         17         18         19         20
    16  H    0.000000
    17  H    3.035274   0.000000
    18  H    3.349046   2.908287   0.000000
    19  H    2.401405   2.623159   2.888898   0.000000
    20  H    3.415145   2.232905   4.852070   3.133404   0.000000
    21  H    2.366039   3.917935   2.415381   3.628431   5.296449
                   21
    21  H    0.000000
 Stoichiometry    C6H10O5
 Framework group  C1[X(C6H10O5)]
 Deg. of freedom    57
 Full point group                 C1      NOp   1
 Largest Abelian subgroup         C1      NOp   1
 Largest concise Abelian subgroup C1      NOp   1
                         Standard orientation:                         
 ---------------------------------------------------------------------
 Center     Atomic      Atomic             Coordinates (Angstroms)
 Number     Number       Type             X           Y           Z
 ---------------------------------------------------------------------
      1          6           0       -2.139786    0.215106   -0.499930
      2          6           0       -1.341973    0.561627    0.763109
      3          6           0       -0.566231   -1.380070    0.027365
      4          6           0        1.160297    0.386768    0.454695
      5          6           0        0.848522   -0.869289   -0.360037
      6          6           0       -0.029314    1.362203    0.496742
      7          8           0       -0.998623   -0.762299    1.229317
      8          8           0       -1.512250   -0.994759   -0.967100
      9          8           0       -0.123155    2.080657   -0.727827
     10          8           0        2.268199    1.106334   -0.080923
     11          8           0        1.889604   -1.797142   -0.054327
     12          1           0       -2.082829    0.981708   -1.272326
     13          1           0       -3.186215    0.008131   -0.249043
     14          1           0       -1.950165    1.033314    1.535037
     15          1           0       -0.582927   -2.465250    0.163109
     16          1           0        1.377831    0.059019    1.478957
     17          1           0        0.846688   -0.627827   -1.429482
     18          1           0        0.801422    2.246764   -0.990382
     19          1           0        2.951664    0.448070   -0.292606
     20          1           0        1.909736   -2.471033   -0.752440
     21          1           0        0.135499    2.066720    1.324396
 ---------------------------------------------------------------------
 Rotational constants (GHZ):      1.5477793      1.2368158      0.8680111
 Standard basis: 6-31+G(d,p) (6D, 7F)
 There are   259 symmetry adapted basis functions of A   symmetry.
 Integral buffers will be    131072 words long.
 Raffenetti 2 integral format.
 Two-electron integral symmetry is turned on.
   259 basis functions,   422 primitive gaussians,   259 cartesian basis functions
    43 alpha electrons       43 beta electrons
       nuclear repulsion energy       725.4512765665 Hartrees.
 NAtoms=   21 NActive=   21 NUniq=   21 SFac= 1.00D+00 NAtFMM=   60 NAOKFM=F Big=F
 ------------------------------------------------------------------------------
 Polarizable Continuum Model (PCM)
 =================================
 Model                : C-PCM.
 Atomic radii         : SMD-Coulomb.
 Polarization charges : Total charges.
 Charge compensation  : None.
 Solution method      : Matrix inversion.
 Cavity type          : VdW (van der Waals Surface) (Alpha=1.000).
 Cavity algorithm     : GePol (No added spheres)
                        Default sphere list used, NSphG=   21.
                        Lebedev-Laikov grids with approx.  5.0 points / Ang**2.
                        Smoothing algorithm: Karplus/York (Gamma=1.0000).
                        Polarization charges: spherical gaussians, with
                                              point-specific exponents (IZeta= 3).
                        Self-potential: point-specific (ISelfS= 7).
                        Self-field    : sphere-specific E.n sum rule (ISelfD= 2).
 Solvent              : Water, Eps=  78.355300 Eps(inf)=   1.777849
 ------------------------------------------------------------------------------
 ------------------------------------------------------------------------------
 Atomic radii for non-electrostatic terms: SMD-CDS.
 ------------------------------------------------------------------------------
 Nuclear repulsion after PCM non-electrostatic terms =      725.4565521139 Hartrees.
 One-electron integrals computed using PRISM.
 NBasis=   259 RedAO= T  NBF=   259
 NBsUse=   259 1.00D-06 NBFU=   259
 Harris functional with IExCor=  402 diagonalized for initial guess.
 ExpMin= 4.38D-02 ExpMax= 5.48D+03 ExpMxC= 8.25D+02 IAcc=2 IRadAn=         4 AccDes= 0.00D+00
 HarFok:  IExCor=  402 AccDes= 0.00D+00 IRadAn=         4 IDoV= 1
 ScaDFX=  1.000000  1.000000  1.000000  1.000000
 FoFCou: FMM=F IPFlag=           0 FMFlag=      100000 FMFlg1=           0
         NFxFlg=           0 DoJE=T BraDBF=F KetDBF=T FulRan=T
         Omega=  0.000000  0.000000  1.000000  0.000000  0.000000 ICntrl=     500 IOpCl=  0
         NMat0=    1 NMatS0=    1 NMatT0=    0 NMatD0=    1 NMtDS0=    0 NMtDT0=    0
         I1Cent=           4 NGrid=           0.
 Petite list used in FoFCou.
 Initial guess orbital symmetries:
       Occupied  (A) (A) (A) (A) (A) (A) (A) (A) (A) (A) (A) (A)
                 (A) (A) (A) (A) (A) (A) (A) (A) (A) (A) (A) (A)
                 (A) (A) (A) (A) (A) (A) (A) (A) (A) (A) (A) (A)
                 (A) (A) (A) (A) (A) (A) (A)
       Virtual   (A) (A) (A) (A) (A) (A) (A) (A) (A) (A) (A) (A)
                 (A) (A) (A) (A) (A) (A) (A) (A) (A) (A) (A) (A)
                 (A) (A) (A) (A) (A) (A) (A) (A) (A) (A) (A) (A)
                 (A) (A) (A) (A) (A) (A) (A) (A) (A) (A) (A) (A)
                 (A) (A) (A) (A) (A) (A) (A) (A) (A) (A) (A) (A)
                 (A) (A) (A) (A) (A) (A) (A) (A) (A) (A) (A) (A)
                 (A) (A) (A) (A) (A) (A) (A) (A) (A) (A) (A) (A)
                 (A) (A) (A) (A) (A) (A) (A) (A) (A) (A) (A) (A)
                 (A) (A) (A) (A) (A) (A) (A) (A) (A) (A) (A) (A)
                 (A) (A) (A) (A) (A) (A) (A) (A) (A) (A) (A) (A)
                 (A) (A) (A) (A) (A) (A) (A) (A) (A) (A) (A) (A)
                 (A) (A) (A) (A) (A) (A) (A) (A) (A) (A) (A) (A)
                 (A) (A) (A) (A) (A) (A) (A) (A) (A) (A) (A) (A)
                 (A) (A) (A) (A) (A) (A) (A) (A) (A) (A) (A) (A)
                 (A) (A) (A) (A) (A) (A) (A) (A) (A) (A) (A) (A)
                 (A) (A) (A) (A) (A) (A) (A) (A) (A) (A) (A) (A)
                 (A) (A) (A) (A) (A) (A) (A) (A) (A) (A) (A) (A)
                 (A) (A) (A) (A) (A) (A) (A) (A) (A) (A) (A) (A)
 The electronic state of the initial guess is 1-A.
 Requested convergence on RMS density matrix=1.00D-08 within 128 cycles.
 Requested convergence on MAX density matrix=1.00D-06.
 Requested convergence on             energy=1.00D-06.
 No special actions if energy rises.
 Error on total polarization charges =  0.05715
 SCF Done:  E(RB3LYP) =  -610.800434794     A.U. after   11 cycles
             Convg  =    0.7769D-08             -V/T =  2.0090
 SMD-CDS (non-electrostatic) energy       (kcal/mol) =       3.31
 (included in total energy above)

 **********************************************************************

            Population analysis using the SCF density.

 **********************************************************************

 Orbital symmetries:
       Occupied  (A) (A) (A) (A) (A) (A) (A) (A) (A) (A) (A) (A)
                 (A) (A) (A) (A) (A) (A) (A) (A) (A) (A) (A) (A)
                 (A) (A) (A) (A) (A) (A) (A) (A) (A) (A) (A) (A)
                 (A) (A) (A) (A) (A) (A) (A)
       Virtual   (A) (A) (A) (A) (A) (A) (A) (A) (A) (A) (A) (A)
                 (A) (A) (A) (A) (A) (A) (A) (A) (A) (A) (A) (A)
                 (A) (A) (A) (A) (A) (A) (A) (A) (A) (A) (A) (A)
                 (A) (A) (A) (A) (A) (A) (A) (A) (A) (A) (A) (A)
                 (A) (A) (A) (A) (A) (A) (A) (A) (A) (A) (A) (A)
                 (A) (A) (A) (A) (A) (A) (A) (A) (A) (A) (A) (A)
                 (A) (A) (A) (A) (A) (A) (A) (A) (A) (A) (A) (A)
                 (A) (A) (A) (A) (A) (A) (A) (A) (A) (A) (A) (A)
                 (A) (A) (A) (A) (A) (A) (A) (A) (A) (A) (A) (A)
                 (A) (A) (A) (A) (A) (A) (A) (A) (A) (A) (A) (A)
                 (A) (A) (A) (A) (A) (A) (A) (A) (A) (A) (A) (A)
                 (A) (A) (A) (A) (A) (A) (A) (A) (A) (A) (A) (A)
                 (A) (A) (A) (A) (A) (A) (A) (A) (A) (A) (A) (A)
                 (A) (A) (A) (A) (A) (A) (A) (A) (A) (A) (A) (A)
                 (A) (A) (A) (A) (A) (A) (A) (A) (A) (A) (A) (A)
                 (A) (A) (A) (A) (A) (A) (A) (A) (A) (A) (A) (A)
                 (A) (A) (A) (A) (A) (A) (A) (A) (A) (A) (A) (A)
                 (A) (A) (A) (A) (A) (A) (A) (A) (A) (A) (A) (A)
 The electronic state is 1-A.
 Alpha  occ. eigenvalues --  -19.18350 -19.17404 -19.17374 -19.17291 -19.16588
 Alpha  occ. eigenvalues --  -10.29323 -10.25183 -10.24813 -10.24575 -10.24422
 Alpha  occ. eigenvalues --  -10.23605  -1.11015  -1.05653  -1.03747  -1.02209
 Alpha  occ. eigenvalues --   -1.01105  -0.78855  -0.78188  -0.68100  -0.65876
 Alpha  occ. eigenvalues --   -0.62033  -0.57700  -0.55298  -0.53977  -0.52471
 Alpha  occ. eigenvalues --   -0.50131  -0.48599  -0.46592  -0.45906  -0.44859
 Alpha  occ. eigenvalues --   -0.43091  -0.41260  -0.40454  -0.38094  -0.36536
 Alpha  occ. eigenvalues --   -0.36267  -0.35259  -0.34780  -0.31901  -0.30135
 Alpha  occ. eigenvalues --   -0.29041  -0.28192  -0.26105
 Alpha virt. eigenvalues --    0.00645   0.01286   0.02068   0.02791   0.04257
 Alpha virt. eigenvalues --    0.04660   0.04910   0.05557   0.05911   0.08314
 Alpha virt. eigenvalues --    0.08525   0.09456   0.09818   0.10636   0.11612
 Alpha virt. eigenvalues --    0.12468   0.12732   0.13445   0.14059   0.14867
 Alpha virt. eigenvalues --    0.15231   0.15371   0.16089   0.16508   0.17028
 Alpha virt. eigenvalues --    0.18213   0.18883   0.19594   0.19760   0.20628
 Alpha virt. eigenvalues --    0.21642   0.21941   0.22464   0.23150   0.24200
 Alpha virt. eigenvalues --    0.24733   0.24881   0.25654   0.26683   0.27145
 Alpha virt. eigenvalues --    0.27482   0.28572   0.28907   0.29132   0.30581
 Alpha virt. eigenvalues --    0.31085   0.31130   0.31809   0.32091   0.32695
 Alpha virt. eigenvalues --    0.33910   0.35127   0.35304   0.35916   0.37070
 Alpha virt. eigenvalues --    0.37472   0.37660   0.38618   0.39632   0.40449
 Alpha virt. eigenvalues --    0.40763   0.42086   0.43008   0.43768   0.44679
 Alpha virt. eigenvalues --    0.45382   0.64273   0.66662   0.66893   0.69420
 Alpha virt. eigenvalues --    0.72395   0.74183   0.74685   0.75728   0.76791
 Alpha virt. eigenvalues --    0.78557   0.79414   0.80872   0.82595   0.83453
 Alpha virt. eigenvalues --    0.85072   0.90107   0.92322   0.94067   0.97647
 Alpha virt. eigenvalues --    0.99479   1.01805   1.03357   1.04508   1.06072
 Alpha virt. eigenvalues --    1.07620   1.08521   1.09125   1.09944   1.13524
 Alpha virt. eigenvalues --    1.18115   1.21062   1.22726   1.25272   1.25768
 Alpha virt. eigenvalues --    1.28262   1.29176   1.30068   1.32090   1.33265
 Alpha virt. eigenvalues --    1.33954   1.34624   1.36087   1.37933   1.39255
 Alpha virt. eigenvalues --    1.41183   1.44845   1.46844   1.47694   1.48676
 Alpha virt. eigenvalues --    1.52404   1.53768   1.55755   1.57684   1.60092
 Alpha virt. eigenvalues --    1.63062   1.63918   1.65748   1.67757   1.69311
 Alpha virt. eigenvalues --    1.72879   1.73675   1.74326   1.76396   1.77348
 Alpha virt. eigenvalues --    1.80989   1.81823   1.82994   1.85989   1.86053
 Alpha virt. eigenvalues --    1.88428   1.92293   1.94152   1.96206   1.97236
 Alpha virt. eigenvalues --    2.00654   2.01237   2.01999   2.05089   2.06377
 Alpha virt. eigenvalues --    2.08466   2.10857   2.12234   2.15947   2.18964
 Alpha virt. eigenvalues --    2.19500   2.20731   2.23476   2.26419   2.29405
 Alpha virt. eigenvalues --    2.33381   2.34313   2.39031   2.41823   2.43259
 Alpha virt. eigenvalues --    2.44150   2.47602   2.48650   2.51242   2.52043
 Alpha virt. eigenvalues --    2.53151   2.56949   2.58771   2.62125   2.62868
 Alpha virt. eigenvalues --    2.64801   2.66108   2.67388   2.68248   2.69698
 Alpha virt. eigenvalues --    2.70694   2.75544   2.76554   2.78722   2.80034
 Alpha virt. eigenvalues --    2.81188   2.83955   2.86969   2.88003   2.91228
 Alpha virt. eigenvalues --    2.94389   2.95781   2.96217   2.99656   3.02734
 Alpha virt. eigenvalues --    3.06853   3.07771   3.10122   3.12135   3.27751
 Alpha virt. eigenvalues --    3.34994   3.39601   3.39825   3.43334   3.48233
 Alpha virt. eigenvalues --    3.51042   3.51679   3.52792   3.57058   3.58132
 Alpha virt. eigenvalues --    4.28388   4.33612   4.38982   4.43909   4.49996
 Alpha virt. eigenvalues --    4.57268   4.59680   4.74083   4.77973   4.96214
 Alpha virt. eigenvalues --    5.02276
          Condensed to atoms (all electrons):
              1          2          3          4          5          6
     1  C    5.450234   0.097165  -0.263962   0.085368   0.032106  -0.303088
     2  C    0.097165   6.277995  -0.470437  -0.185281   0.133740  -0.038050
     3  C   -0.263962  -0.470437   6.144920  -0.092289  -0.490871   0.305434
     4  C    0.085368  -0.185281  -0.092289   5.702061   0.082309   0.134977
     5  C    0.032106   0.133740  -0.490871   0.082309   6.258045  -0.458496
     6  C   -0.303088  -0.038050   0.305434   0.134977  -0.458496   5.956017
     7  O   -0.037587   0.093981   0.246176  -0.020119  -0.057827  -0.157670
     8  O    0.152674  -0.151010   0.297039  -0.007836  -0.105673   0.051082
     9  O    0.033019  -0.182511  -0.035092  -0.061802   0.084599   0.164837
    10  O    0.002225   0.035554   0.015729   0.178863  -0.040894  -0.134549
    11  O   -0.002044   0.000049  -0.112322  -0.087026   0.216654   0.050799
    12  H    0.472243  -0.134663   0.025714   0.002426  -0.004183   0.001795
    13  H    0.387389  -0.010856  -0.030667  -0.003374   0.010419   0.025990
    14  H   -0.020345   0.337494   0.017134   0.000274  -0.000248   0.004070
    15  H    0.015293   0.010424   0.387856   0.000271  -0.047153   0.005117
    16  H    0.005227  -0.027672   0.007729   0.348732  -0.031616  -0.017889
    17  H    0.012782  -0.002388  -0.068484  -0.112453   0.469159  -0.003052
    18  H   -0.004171   0.038723  -0.002420  -0.046667  -0.009783   0.013569
    19  H   -0.000511  -0.008251   0.015305   0.037258  -0.071792   0.029894
    20  H    0.001524   0.001265  -0.040285   0.016004   0.035581  -0.007950
    21  H    0.016118  -0.057434  -0.019505   0.019953   0.038869   0.312317
              7          8          9         10         11         12
     1  C   -0.037587   0.152674   0.033019   0.002225  -0.002044   0.472243
     2  C    0.093981  -0.151010  -0.182511   0.035554   0.000049  -0.134663
     3  C    0.246176   0.297039  -0.035092   0.015729  -0.112322   0.025714
     4  C   -0.020119  -0.007836  -0.061802   0.178863  -0.087026   0.002426
     5  C   -0.057827  -0.105673   0.084599  -0.040894   0.216654  -0.004183
     6  C   -0.157670   0.051082   0.164837  -0.134549   0.050799   0.001795
     7  O    8.430015  -0.067989   0.020887   0.000555   0.006956   0.010858
     8  O   -0.067989   8.419828   0.000880  -0.002620   0.002287  -0.045236
     9  O    0.020887   0.000880   8.414582  -0.018908  -0.003665  -0.001753
    10  O    0.000555  -0.002620  -0.018908   8.390796  -0.017372   0.000029
    11  O    0.006956   0.002287  -0.003665  -0.017372   8.359697   0.000031
    12  H    0.010858  -0.045236  -0.001753   0.000029   0.000031   0.532444
    13  H   -0.004288  -0.050342  -0.001328  -0.000009   0.000017  -0.040194
    14  H   -0.036499   0.007397   0.005362  -0.000258   0.000115   0.002464
    15  H   -0.042398  -0.044830   0.000419  -0.000449  -0.000587  -0.000268
    16  H    0.010467  -0.000086   0.006130  -0.040168   0.000955  -0.000001
    17  H    0.011801  -0.003325   0.006305   0.005954  -0.046258  -0.000016
    18  H   -0.000833  -0.001303   0.236773   0.025392   0.000107   0.000466
    19  H   -0.000065   0.000050  -0.000655   0.238285   0.015373   0.000001
    20  H   -0.000097   0.000499   0.000265   0.000167   0.244363  -0.000001
    21  H    0.007040  -0.000969  -0.043155   0.002003  -0.000841   0.000025
             13         14         15         16         17         18
     1  C    0.387389  -0.020345   0.015293   0.005227   0.012782  -0.004171
     2  C   -0.010856   0.337494   0.010424  -0.027672  -0.002388   0.038723
     3  C   -0.030667   0.017134   0.387856   0.007729  -0.068484  -0.002420
     4  C   -0.003374   0.000274   0.000271   0.348732  -0.112453  -0.046667
     5  C    0.010419  -0.000248  -0.047153  -0.031616   0.469159  -0.009783
     6  C    0.025990   0.004070   0.005117  -0.017889  -0.003052   0.013569
     7  O   -0.004288  -0.036499  -0.042398   0.010467   0.011801  -0.000833
     8  O   -0.050342   0.007397  -0.044830  -0.000086  -0.003325  -0.001303
     9  O   -0.001328   0.005362   0.000419   0.006130   0.006305   0.236773
    10  O   -0.000009  -0.000258  -0.000449  -0.040168   0.005954   0.025392
    11  O    0.000017   0.000115  -0.000587   0.000955  -0.046258   0.000107
    12  H   -0.040194   0.002464  -0.000268  -0.000001  -0.000016   0.000466
    13  H    0.558920  -0.004423   0.000374   0.000000  -0.000045  -0.000011
    14  H   -0.004423   0.513290  -0.000076   0.000015   0.000027  -0.000224
    15  H    0.000374  -0.000076   0.540365  -0.000178   0.001123  -0.000008
    16  H    0.000000   0.000015  -0.000178   0.568743   0.004595   0.000665
    17  H   -0.000045   0.000027   0.001123   0.004595   0.546185  -0.000100
    18  H   -0.000011  -0.000224  -0.000008   0.000665  -0.000100   0.340482
    19  H    0.000000   0.000003  -0.000009  -0.004025  -0.001438  -0.000809
    20  H    0.000000   0.000000   0.001609   0.000249  -0.006107  -0.000001
    21  H   -0.000080  -0.007786   0.000006  -0.005576  -0.000077  -0.002576
             19         20         21
     1  C   -0.000511   0.001524   0.016118
     2  C   -0.008251   0.001265  -0.057434
     3  C    0.015305  -0.040285  -0.019505
     4  C    0.037258   0.016004   0.019953
     5  C   -0.071792   0.035581   0.038869
     6  C    0.029894  -0.007950   0.312317
     7  O   -0.000065  -0.000097   0.007040
     8  O    0.000050   0.000499  -0.000969
     9  O   -0.000655   0.000265  -0.043155
    10  O    0.238285   0.000167   0.002003
    11  O    0.015373   0.244363  -0.000841
    12  H    0.000001  -0.000001   0.000025
    13  H    0.000000   0.000000  -0.000080
    14  H    0.000003   0.000000  -0.007786
    15  H   -0.000009   0.001609   0.000006
    16  H   -0.004025   0.000249  -0.005576
    17  H   -0.001438  -0.006107  -0.000077
    18  H   -0.000809  -0.000001  -0.002576
    19  H    0.340589  -0.000927  -0.000170
    20  H   -0.000927   0.336284   0.000005
    21  H   -0.000170   0.000005   0.586528
 Mulliken atomic charges:
              1
     1  C   -0.131659
     2  C    0.242162
     3  C    0.163298
     4  C    0.008349
     5  C   -0.042946
     6  C    0.064846
     7  O   -0.413364
     8  O   -0.450515
     9  O   -0.625192
    10  O   -0.640325
    11  O   -0.627288
    12  H    0.177819
    13  H    0.162510
    14  H    0.182214
    15  H    0.173096
    16  H    0.173703
    17  H    0.185813
    18  H    0.412730
    19  H    0.411895
    20  H    0.417551
    21  H    0.155304
 Sum of Mulliken atomic charges =   0.00000
 Mulliken charges with hydrogens summed into heavy atoms:
              1
     1  C    0.208670
     2  C    0.424376
     3  C    0.336394
     4  C    0.182052
     5  C    0.142867
     6  C    0.220151
     7  O   -0.413364
     8  O   -0.450515
     9  O   -0.212462
    10  O   -0.228430
    11  O   -0.209737
 Sum of Mulliken charges with hydrogens summed into heavy atoms =   0.00000
 Electronic spatial extent (au):  <R**2>=           1444.6205
 Charge=              0.0000 electrons
 Dipole moment (field-independent basis, Debye):
    X=              1.0754    Y=             -0.8647    Z=             -0.5622  Tot=              1.4900
 Quadrupole moment (field-independent basis, Debye-Ang):
   XX=            -61.9311   YY=            -65.0937   ZZ=            -66.8235
   XY=             -5.9762   XZ=             -7.2150   YZ=              6.8957
 Traceless Quadrupole moment (field-independent basis, Debye-Ang):
   XX=              2.6850   YY=             -0.4776   ZZ=             -2.2074
   XY=             -5.9762   XZ=             -7.2150   YZ=              6.8957
 Octapole moment (field-independent basis, Debye-Ang**2):
  XXX=              3.1854  YYY=            -31.4704  ZZZ=             -3.7445  XYY=              9.7163
  XXY=              3.3645  XXZ=             -8.4743  XZZ=             11.8551  YZZ=              6.5365
  YYZ=             -6.5640  XYZ=              4.6981
 Hexadecapole moment (field-independent basis, Debye-Ang**3):
 XXXX=           -789.0944 YYYY=           -621.2792 ZZZZ=           -261.4470 XXXY=            -31.2854
 XXXZ=            -36.1159 YYYX=            -13.3196 YYYZ=             30.1603 ZZZX=            -10.2207
 ZZZY=              6.0474 XXYY=           -268.8352 XXZZ=           -184.9578 YYZZ=           -146.7416
 XXYZ=              8.7932 YYXZ=            -37.4276 ZZXY=            -15.1639
 N-N= 7.254565521139D+02 E-N=-2.881144454467D+03  KE= 6.053554935767D+02

 Test job not archived.
 1\1\GINC-COMPUTE-8-7\SP\RB3LYP\6-31+G(d,p)\C6H10O5\ASAROTTI.IQUIR\15-A
 pr-2019\0\\# B3LYP/6-31+G** test scrf=(pcm,solvent=water,smd,dovacuum)
 \\comment\\0,1\C,0,-2.139786,0.215106,-0.49993\C,0,-1.341973,0.561627,
 0.763109\C,0,-0.566231,-1.38007,0.027365\C,0,1.160297,0.386768,0.45469
 5\C,0,0.848522,-0.869289,-0.360037\C,0,-0.029314,1.362203,0.496742\O,0
 ,-0.998623,-0.762299,1.229317\O,0,-1.51225,-0.994759,-0.9671\O,0,-0.12
 3155,2.080657,-0.727827\O,0,2.268199,1.106334,-0.080923\O,0,1.889604,-
 1.797142,-0.054327\H,0,-2.082829,0.981708,-1.272326\H,0,-3.186215,0.00
 8131,-0.249043\H,0,-1.950165,1.033314,1.535037\H,0,-0.582927,-2.46525,
 0.163109\H,0,1.377831,0.059019,1.478957\H,0,0.846688,-0.627827,-1.4294
 82\H,0,0.801422,2.246764,-0.990382\H,0,2.951664,0.44807,-0.292606\H,0,
 1.909736,-2.471033,-0.75244\H,0,0.135499,2.06672,1.324396\\Version=EM6
 4L-G09RevC.01\State=1-A\HF=-610.8004348\RMSD=7.769e-09\Dipole=0.423086
 9,-0.3401918,-0.2211902\Quadrupole=1.9962431,-0.3551098,-1.6411334,-4.
 4431455,-5.3641927,5.1267751\PG=C01 [X(C6H10O5)]\\@


 THERE IS AN OLD, OLD RECIPE IN MAINE FOR STEWING COOT. PLACE THE
 BIRD IN A KETTLE OF WATER WITH A RED BUILDING BRICK FREE OF MORTAR AND
 BLEMISHES. PARBOIL THE COOT AND BRICK TOGETHER FOR THREE HOURS.
 POUR OFF THE WATER, REFILL THE KETTLE, AND AGAIN PARBOIL FOR THREE HOURS.
 ONCE AGAIN POUR OFF THE WATER, FOR THE LAST TIME ADD FRESH WATER,
 AND LET THE COOT AND BRICK SIMMER TOGETHER OVERNIGHT. IN THE MORNING,
 THROW AWAY THE COOT AND EAT THE BRICK.
 Job cpu time:  0 days  0 hours  9 minutes  1.3 seconds.
 File lengths (MBytes):  RWF=     55 Int=      0 D2E=      0 Chk=      4 Scr=      1
 Normal termination of Gaussian 09 at Mon Apr 15 17:55:14 2019.
