 Entering Gaussian System, Link 0=g09
 Input=/home/mmarcarino.iquir/NMR/02_RSS_Levo16_OPTB_nmr.gjc
 Output=/home/mmarcarino.iquir/NMR/02_RSS_Levo16_OPTB_nmr.log
 Initial command:
 /share/apps/Gaussian09/EM64T.SSE4.2-enabled/g09/l1.exe /tmp/Gau-59425.inp -scrdir=/tmp/
 Entering Link 1 = /share/apps/Gaussian09/EM64T.SSE4.2-enabled/g09/l1.exe PID=     59426.
  
 Copyright (c) 1988,1990,1992,1993,1995,1998,2003,2009,2011,
            Gaussian, Inc.  All Rights Reserved.
  
 This is part of the Gaussian(R) 09 program.  It is based on
 the Gaussian(R) 03 system (copyright 2003, Gaussian, Inc.),
 the Gaussian(R) 98 system (copyright 1998, Gaussian, Inc.),
 the Gaussian(R) 94 system (copyright 1995, Gaussian, Inc.),
 the Gaussian 92(TM) system (copyright 1992, Gaussian, Inc.),
 the Gaussian 90(TM) system (copyright 1990, Gaussian, Inc.),
 the Gaussian 88(TM) system (copyright 1988, Gaussian, Inc.),
 the Gaussian 86(TM) system (copyright 1986, Carnegie Mellon
 University), and the Gaussian 82(TM) system (copyright 1983,
 Carnegie Mellon University). Gaussian is a federally registered
 trademark of Gaussian, Inc.
  
 This software contains proprietary and confidential information,
 including trade secrets, belonging to Gaussian, Inc.
  
 This software is provided under written license and may be
 used, copied, transmitted, or stored only in accord with that
 written license.
  
 The following legend is applicable only to US Government
 contracts under FAR:
  
                    RESTRICTED RIGHTS LEGEND
  
 Use, reproduction and disclosure by the US Government is
 subject to restrictions as set forth in subparagraphs (a)
 and (c) of the Commercial Computer Software - Restricted
 Rights clause in FAR 52.227-19.
  
 Gaussian, Inc.
 340 Quinnipiac St., Bldg. 40, Wallingford CT 06492
  
  
 ---------------------------------------------------------------
 Warning -- This program may not be used in any manner that
 competes with the business of Gaussian, Inc. or will provide
 assistance to any competitor of Gaussian, Inc.  The licensee
 of this program is prohibited from giving any competitor of
 Gaussian, Inc. access to this program.  By using this program,
 the user acknowledges that Gaussian, Inc. is engaged in the
 business of creating and licensing software in the field of
 computational chemistry and represents and warrants to the
 licensee that it is not a competitor of Gaussian, Inc. and that
 it will not use this program in any manner prohibited above.
 ---------------------------------------------------------------
  

 Cite this work as:
 Gaussian 09, Revision C.01,
 M. J. Frisch, G. W. Trucks, H. B. Schlegel, G. E. Scuseria, 
 M. A. Robb, J. R. Cheeseman, G. Scalmani, V. Barone, B. Mennucci, 
 G. A. Petersson, H. Nakatsuji, M. Caricato, X. Li, H. P. Hratchian, 
 A. F. Izmaylov, J. Bloino, G. Zheng, J. L. Sonnenberg, M. Hada, 
 M. Ehara, K. Toyota, R. Fukuda, J. Hasegawa, M. Ishida, T. Nakajima, 
 Y. Honda, O. Kitao, H. Nakai, T. Vreven, J. A. Montgomery, Jr., 
 J. E. Peralta, F. Ogliaro, M. Bearpark, J. J. Heyd, E. Brothers, 
 K. N. Kudin, V. N. Staroverov, T. Keith, R. Kobayashi, J. Normand, 
 K. Raghavachari, A. Rendell, J. C. Burant, S. S. Iyengar, J. Tomasi, 
 M. Cossi, N. Rega, J. M. Millam, M. Klene, J. E. Knox, J. B. Cross, 
 V. Bakken, C. Adamo, J. Jaramillo, R. Gomperts, R. E. Stratmann, 
 O. Yazyev, A. J. Austin, R. Cammi, C. Pomelli, J. W. Ochterski, 
 R. L. Martin, K. Morokuma, V. G. Zakrzewski, G. A. Voth, 
 P. Salvador, J. J. Dannenberg, S. Dapprich, A. D. Daniels, 
 O. Farkas, J. B. Foresman, J. V. Ortiz, J. Cioslowski, 
 and D. J. Fox, Gaussian, Inc., Wallingford CT, 2010.
 
 ******************************************
 Gaussian 09:  EM64L-G09RevC.01 23-Sep-2011
                12-Apr-2019 
 ******************************************
 %nprocshared=4
 Will use up to    4 processors via shared memory.
 ------------------------------------------------
 # mpw1pw91/6-31+g** nmr scrf=(pcm,solvent=water)
 ------------------------------------------------
 1/38=1/1;
 2/12=2,17=6,18=5,40=1/2;
 3/5=1,6=6,7=111,11=2,16=1,25=1,30=1,70=2201,72=1,74=-7/1,2,8,3;
 4//1;
 5/5=2,38=5,53=1/2;
 8/6=1,10=90,11=11/1;
 10/13=100,45=16/2;
 6/7=2,8=2,9=2,10=2,28=1/1;
 99/9=1/99;
 -------
 comment
 -------
 Charge =  0 Multiplicity = 1
 Symbolic Z-Matrix:
 6                    -0.68491   1.72315   0.58049 
 6                    -0.60513   1.0725   -0.80744 
 6                     1.35589   0.74657   0.17249 
 6                    -0.22374  -1.25647   0.17402 
 6                     1.24379  -0.77737   0.33402 
 6                    -1.00791  -0.41502  -0.8627 
 8                     0.80984   1.14423  -1.07121 
 8                     0.59333   1.41221   1.17128 
 8                    -2.40392  -0.59485  -0.69707 
 8                    -0.95463  -1.152     1.40449 
 8                     2.08011  -1.34022  -0.67344 
 1                    -1.48774   1.32098   1.20171 
 1                    -0.7884    2.81126   0.50556 
 1                    -1.13124   1.63755  -1.57938 
 1                     2.39875   1.07224   0.21599 
 1                    -0.21129  -2.3036   -0.15489 
 1                     1.59184  -1.05109   1.33984 
 1                    -2.51655  -0.8033    0.25036 
 1                    -0.79233  -1.95188   1.92763 
 1                     2.20855  -2.27837  -0.46115 
 1                    -0.73736  -0.76897  -1.86343 
 
                          Input orientation:                          
 ---------------------------------------------------------------------
 Center     Atomic      Atomic             Coordinates (Angstroms)
 Number     Number       Type             X           Y           Z
 ---------------------------------------------------------------------
      1          6           0       -0.684914    1.723145    0.580489
      2          6           0       -0.605133    1.072500   -0.807439
      3          6           0        1.355890    0.746569    0.172490
      4          6           0       -0.223743   -1.256468    0.174018
      5          6           0        1.243787   -0.777370    0.334023
      6          6           0       -1.007906   -0.415023   -0.862695
      7          8           0        0.809841    1.144234   -1.071213
      8          8           0        0.593333    1.412208    1.171277
      9          8           0       -2.403915   -0.594848   -0.697065
     10          8           0       -0.954630   -1.151995    1.404492
     11          8           0        2.080105   -1.340215   -0.673435
     12          1           0       -1.487736    1.320978    1.201705
     13          1           0       -0.788399    2.811258    0.505562
     14          1           0       -1.131237    1.637547   -1.579382
     15          1           0        2.398754    1.072236    0.215987
     16          1           0       -0.211289   -2.303603   -0.154892
     17          1           0        1.591839   -1.051085    1.339843
     18          1           0       -2.516552   -0.803304    0.250364
     19          1           0       -0.792334   -1.951884    1.927629
     20          1           0        2.208551   -2.278370   -0.461152
     21          1           0       -0.737359   -0.768968   -1.863428
 ---------------------------------------------------------------------
                    Distance matrix (angstroms):
                    1          2          3          4          5
     1  C    0.000000
     2  C    1.534942   0.000000
     3  C    2.298923   2.216326   0.000000
     4  C    3.042366   2.555936   2.550961   0.000000
     5  C    3.167524   2.853675   1.536571   1.552025   0.000000
     6  C    2.599782   1.542078   2.829918   1.548456   2.575568
     7  O    2.301641   1.441136   1.415311   2.895214   2.419826
     8  O    1.442091   2.338170   1.422021   2.963776   2.432763
     9  O    3.155978   2.455168   4.085543   2.439196   3.795021
    10  O    3.003025   3.156448   3.234328   1.434983   2.473719
    11  O    4.312984   3.612430   2.365321   2.456197   1.425200
    12  H    1.091866   2.208481   3.078220   3.049106   3.552063
    13  H    1.095588   2.186513   2.995305   4.120091   4.127645
    14  H    2.207164   1.091769   3.169968   3.503324   3.890203
    15  H    3.172626   3.173443   1.093397   3.507437   2.183787
    16  H    4.120656   3.461070   3.444819   1.097647   2.164641
    17  H    3.668320   3.734584   2.156373   2.167410   1.098970
    18  H    3.137965   2.879429   4.171807   2.338410   3.761359
    19  H    3.915631   4.081977   3.870017   1.970292   2.839868
    20  H    5.046710   4.389198   3.206055   2.713628   1.953477
    21  H    3.490861   2.126876   3.289910   2.156999   2.958682
                    6          7          8          9         10
     6  C    0.000000
     7  O    2.403948   0.000000
     8  O    3.168561   2.268799   0.000000
     9  O    1.417255   3.673230   4.062323   0.000000
    10  O    2.384555   3.809874   3.004283   2.612926   0.000000
    11  O    3.229181   2.818561   3.631706   4.545609   3.682774
    12  H    2.739650   3.236704   2.083290   2.848702   2.537897
    13  H    3.511296   2.796348   2.075982   3.956989   4.067319
    14  H    2.177589   2.066247   3.254388   2.716943   4.088550
    15  H    3.870507   2.046146   2.070677   5.165120   4.195823
    16  H    2.168483   3.710786   4.026586   2.832208   2.076159
    17  H    3.466183   3.353228   2.663314   4.508126   2.549287
    18  H    1.914595   4.074845   3.927844   0.976608   1.973119
    19  H    3.192855   4.598474   3.716081   3.365674   0.969451
    20  H    3.738836   3.747370   4.346737   4.915765   3.841232
    21  H    1.095417   2.584913   3.967078   2.041600   3.297456
                   11         12         13         14         15
    11  O    0.000000
    12  H    4.829864   0.000000
    13  H    5.181995   1.787350   0.000000
    14  H    4.472195   2.821658   2.417049   0.000000
    15  H    2.590855   4.017252   3.642251   4.000470   0.000000
    16  H    2.539191   4.075201   5.189514   4.290471   4.283242
    17  H    2.091719   3.889672   4.612944   4.813082   2.534296
    18  H    4.719209   2.544816   4.014561   3.350347   5.261090
    19  H    3.923083   3.423766   4.970896   5.029711   4.717845
    20  H    0.970411   5.420603   5.985028   5.266785   3.423632
    21  H    3.111352   3.784968   4.293336   2.455023   4.189177
                   16         17         18         19         20
    16  H    0.000000
    17  H    2.655994   0.000000
    18  H    2.780174   4.257609   0.000000
    19  H    2.190482   2.615571   2.665592   0.000000
    20  H    2.439274   2.264982   5.000867   3.849439   0.000000
    21  H    2.356045   3.970604   2.763118   3.971703   3.594866
                   21
    21  H    0.000000
 Stoichiometry    C6H10O5
 Framework group  C1[X(C6H10O5)]
 Deg. of freedom    57
 Full point group                 C1      NOp   1
 Largest Abelian subgroup         C1      NOp   1
 Largest concise Abelian subgroup C1      NOp   1
                         Standard orientation:                         
 ---------------------------------------------------------------------
 Center     Atomic      Atomic             Coordinates (Angstroms)
 Number     Number       Type             X           Y           Z
 ---------------------------------------------------------------------
      1          6           0       -0.684914    1.723145    0.580489
      2          6           0       -0.605133    1.072500   -0.807439
      3          6           0        1.355890    0.746569    0.172490
      4          6           0       -0.223743   -1.256468    0.174018
      5          6           0        1.243787   -0.777370    0.334023
      6          6           0       -1.007906   -0.415023   -0.862695
      7          8           0        0.809841    1.144234   -1.071213
      8          8           0        0.593333    1.412208    1.171277
      9          8           0       -2.403915   -0.594848   -0.697065
     10          8           0       -0.954630   -1.151995    1.404492
     11          8           0        2.080105   -1.340215   -0.673435
     12          1           0       -1.487736    1.320978    1.201705
     13          1           0       -0.788399    2.811258    0.505562
     14          1           0       -1.131237    1.637547   -1.579382
     15          1           0        2.398754    1.072236    0.215987
     16          1           0       -0.211289   -2.303603   -0.154892
     17          1           0        1.591839   -1.051085    1.339843
     18          1           0       -2.516552   -0.803304    0.250364
     19          1           0       -0.792334   -1.951884    1.927629
     20          1           0        2.208551   -2.278370   -0.461152
     21          1           0       -0.737359   -0.768968   -1.863428
 ---------------------------------------------------------------------
 Rotational constants (GHZ):      1.4606018      1.2490357      1.0027395
 Standard basis: 6-31+G(d,p) (6D, 7F)
 There are   259 symmetry adapted basis functions of A   symmetry.
 Integral buffers will be    131072 words long.
 Raffenetti 2 integral format.
 Two-electron integral symmetry is turned on.
   259 basis functions,   422 primitive gaussians,   259 cartesian basis functions
    43 alpha electrons       43 beta electrons
       nuclear repulsion energy       731.4251379709 Hartrees.
 NAtoms=   21 NActive=   21 NUniq=   21 SFac= 1.00D+00 NAtFMM=   60 NAOKFM=F Big=F
 ------------------------------------------------------------------------------
 Polarizable Continuum Model (PCM)
 =================================
 Model                : PCM.
 Atomic radii         : UFF (Universal Force Field).
 Polarization charges : Total charges.
 Charge compensation  : None.
 Solution method      : Matrix inversion.
 Cavity type          : Scaled VdW (van der Waals Surface) (Alpha=1.100).
 Cavity algorithm     : GePol (No added spheres)
                        Default sphere list used, NSphG=   21.
                        Lebedev-Laikov grids with approx.  5.0 points / Ang**2.
                        Smoothing algorithm: Karplus/York (Gamma=1.0000).
                        Polarization charges: spherical gaussians, with
                                              point-specific exponents (IZeta= 3).
                        Self-potential: point-specific (ISelfS= 7).
                        Self-field    : sphere-specific E.n sum rule (ISelfD= 2).
 Solvent              : Water, Eps=  78.355300 Eps(inf)=   1.777849
 ------------------------------------------------------------------------------
 One-electron integrals computed using PRISM.
 NBasis=   259 RedAO= T  NBF=   259
 NBsUse=   259 1.00D-06 NBFU=   259
 Harris functional with IExCor=  908 diagonalized for initial guess.
 ExpMin= 4.38D-02 ExpMax= 5.48D+03 ExpMxC= 8.25D+02 IAcc=2 IRadAn=         4 AccDes= 0.00D+00
 HarFok:  IExCor=  908 AccDes= 0.00D+00 IRadAn=         4 IDoV= 1
 ScaDFX=  1.000000  1.000000  1.000000  1.000000
 FoFCou: FMM=F IPFlag=           0 FMFlag=      100000 FMFlg1=           0
         NFxFlg=           0 DoJE=T BraDBF=F KetDBF=T FulRan=T
         Omega=  0.000000  0.000000  1.000000  0.000000  0.000000 ICntrl=     500 IOpCl=  0
         NMat0=    1 NMatS0=    1 NMatT0=    0 NMatD0=    1 NMtDS0=    0 NMtDT0=    0
         I1Cent=           4 NGrid=           0.
 Petite list used in FoFCou.
 Initial guess orbital symmetries:
       Occupied  (A) (A) (A) (A) (A) (A) (A) (A) (A) (A) (A) (A)
                 (A) (A) (A) (A) (A) (A) (A) (A) (A) (A) (A) (A)
                 (A) (A) (A) (A) (A) (A) (A) (A) (A) (A) (A) (A)
                 (A) (A) (A) (A) (A) (A) (A)
       Virtual   (A) (A) (A) (A) (A) (A) (A) (A) (A) (A) (A) (A)
                 (A) (A) (A) (A) (A) (A) (A) (A) (A) (A) (A) (A)
                 (A) (A) (A) (A) (A) (A) (A) (A) (A) (A) (A) (A)
                 (A) (A) (A) (A) (A) (A) (A) (A) (A) (A) (A) (A)
                 (A) (A) (A) (A) (A) (A) (A) (A) (A) (A) (A) (A)
                 (A) (A) (A) (A) (A) (A) (A) (A) (A) (A) (A) (A)
                 (A) (A) (A) (A) (A) (A) (A) (A) (A) (A) (A) (A)
                 (A) (A) (A) (A) (A) (A) (A) (A) (A) (A) (A) (A)
                 (A) (A) (A) (A) (A) (A) (A) (A) (A) (A) (A) (A)
                 (A) (A) (A) (A) (A) (A) (A) (A) (A) (A) (A) (A)
                 (A) (A) (A) (A) (A) (A) (A) (A) (A) (A) (A) (A)
                 (A) (A) (A) (A) (A) (A) (A) (A) (A) (A) (A) (A)
                 (A) (A) (A) (A) (A) (A) (A) (A) (A) (A) (A) (A)
                 (A) (A) (A) (A) (A) (A) (A) (A) (A) (A) (A) (A)
                 (A) (A) (A) (A) (A) (A) (A) (A) (A) (A) (A) (A)
                 (A) (A) (A) (A) (A) (A) (A) (A) (A) (A) (A) (A)
                 (A) (A) (A) (A) (A) (A) (A) (A) (A) (A) (A) (A)
                 (A) (A) (A) (A) (A) (A) (A) (A) (A) (A) (A) (A)
 The electronic state of the initial guess is 1-A.
 Requested convergence on RMS density matrix=1.00D-08 within 128 cycles.
 Requested convergence on MAX density matrix=1.00D-06.
 Requested convergence on             energy=1.00D-06.
 No special actions if energy rises.
 Error on total polarization charges =  0.01154
 SCF Done:  E(RmPW1PW91) =  -610.647566178     A.U. after   12 cycles
             Convg  =    0.9534D-08             -V/T =  2.0090
 Range of M.O.s used for correlation:     1   259
 NBasis=   259 NAE=    43 NBE=    43 NFC=     0 NFV=     0
 NROrb=    259 NOA=    43 NOB=    43 NVA=   216 NVB=   216

 **** Warning!!: The largest alpha MO coefficient is  0.54139652D+02

 NEqPCM:  Using equilibrium solvation (IEInf=0, Eps=  78.3553, EpsInf=   1.7778)
          Differentiating once with respect to magnetic field using GIAOs.
          Electric field/nuclear overlap derivatives assumed to be zero.
 FoFCou: FMM=F IPFlag=           0 FMFlag=    10101102 FMFlg1=           0
         NFxFlg=    40000000 DoJE=F BraDBF=F KetDBF=T FulRan=T
         Omega=  0.000000  0.000000  1.000000  0.000000  0.000000 ICntrl=    6100 IOpCl=  0
         NMat0=    1 NMatS0=    1 NMatT0=    0 NMatD0=    1 NMtDS0=    0 NMtDT0=    0
         I1Cent=           7 NGrid=        1515.
 Symmetry not used in FoFCou.
          There are     3 degrees of freedom in the 1st order CPHF.  IDoFFX=0.
      3 vectors produced by pass  0 Test12= 3.10D-13 3.33D-08 XBig12= 1.98D+01 8.61D-01.
 AX will form     3 AO Fock derivatives at one time.
      3 vectors produced by pass  1 Test12= 3.10D-13 3.33D-08 XBig12= 4.44D-02 2.55D-02.
      3 vectors produced by pass  2 Test12= 3.10D-13 3.33D-08 XBig12= 8.64D-05 1.42D-03.
      3 vectors produced by pass  3 Test12= 3.10D-13 3.33D-08 XBig12= 4.09D-07 8.16D-05.
      3 vectors produced by pass  4 Test12= 3.10D-13 3.33D-08 XBig12= 1.45D-09 5.86D-06.
      3 vectors produced by pass  5 Test12= 3.10D-13 3.33D-08 XBig12= 4.09D-12 3.72D-07.
 Inverted reduced A of dimension    18 with in-core refinement.
 Calculating GIAO nuclear magnetic shielding tensors.
 SCF GIAO Magnetic shielding tensor (ppm):
      1  C    Isotropic =   131.7941   Anisotropy =    64.2880
   XX=   156.1932   YX=   -11.4903   ZX=    28.1798
   XY=   -18.6504   YY=   111.6470   ZY=    -0.4139
   XZ=    23.4817   YZ=    -4.5681   ZZ=   127.5422
   Eigenvalues:   104.6597   116.0698   174.6528
      2  C    Isotropic =   118.6844   Anisotropy =    58.3226
   XX=   155.3688   YX=     3.5328   ZX=   -11.5701
   XY=    12.5434   YY=    99.2046   ZY=    13.1311
   XZ=    -5.9789   YZ=     1.6923   ZZ=   101.4797
   Eigenvalues:    90.6820   107.8050   157.5661
      3  C    Isotropic =    92.9895   Anisotropy =    34.0953
   XX=    83.5983   YX=   -12.9564   ZX=   -10.4104
   XY=   -26.9028   YY=    86.3802   ZY=     8.4511
   XZ=    -0.6355   YZ=     4.5060   ZZ=   108.9898
   Eigenvalues:    65.0078    98.2409   115.7196
      4  C    Isotropic =   121.8974   Anisotropy =    45.0018
   XX=   128.5140   YX=    -3.0239   ZX=   -27.9426
   XY=     2.7366   YY=   101.9679   ZY=    10.9755
   XZ=    -8.9605   YZ=     9.4190   ZZ=   135.2103
   Eigenvalues:    98.0363   115.7573   151.8986
      5  C    Isotropic =   121.1358   Anisotropy =    36.6717
   XX=   123.6631   YX=    -6.6771   ZX=    -6.8528
   XY=    -6.1415   YY=   108.9976   ZY=    11.2305
   XZ=   -16.3776   YZ=    16.6979   ZZ=   130.7466
   Eigenvalues:   102.1469   115.6768   145.5836
      6  C    Isotropic =   129.9143   Anisotropy =    51.8026
   XX=   158.6186   YX=     8.8559   ZX=    -5.3421
   XY=    12.6595   YY=   122.7115   ZY=     4.5085
   XZ=   -21.6390   YZ=    -1.3516   ZZ=   108.4130
   Eigenvalues:   103.9998   121.2939   164.4494
      7  O    Isotropic =   237.5681   Anisotropy =    54.3080
   XX=   244.9284   YX=   -34.9890   ZX=     2.0337
   XY=   -32.9635   YY=   199.8337   ZY=     2.1605
   XZ=    -8.7680   YZ=    17.0705   ZZ=   267.9422
   Eigenvalues:   181.0547   257.8762   273.7735
      8  O    Isotropic =   264.8927   Anisotropy =   113.3341
   XX=   249.1460   YX=   -50.0450   ZX=    -7.3380
   XY=   -57.5811   YY=   212.0543   ZY=    29.5249
   XZ=    23.7116   YZ=    29.2364   ZZ=   333.4778
   Eigenvalues:   168.6644   285.5649   340.4487
      9  O    Isotropic =   309.7061   Anisotropy =    27.9272
   XX=   313.5194   YX=     8.4633   ZX=     3.4534
   XY=    23.6468   YY=   309.7653   ZY=   -21.1233
   XZ=    13.1357   YZ=    -5.9197   ZZ=   305.8338
   Eigenvalues:   284.1432   316.6509   328.3243
     10  O    Isotropic =   301.5685   Anisotropy =    41.4601
   XX=   281.5940   YX=    -8.6565   ZX=    19.0707
   XY=   -10.6913   YY=   302.8309   ZY=    -9.4603
   XZ=   -11.8561   YZ=   -18.1449   ZZ=   320.2805
   Eigenvalues:   277.7742   297.7227   329.2085
     11  O    Isotropic =   293.4617   Anisotropy =    64.9571
   XX=   283.7923   YX=    -3.9209   ZX=    -8.2961
   XY=   -16.4641   YY=   333.6544   ZY=    15.9632
   XZ=   -12.8230   YZ=    -1.8556   ZZ=   262.9383
   Eigenvalues:   258.4307   285.1879   336.7664
     12  H    Isotropic =    27.3425   Anisotropy =     4.9675
   XX=    29.5226   YX=    -0.3727   ZX=    -3.2248
   XY=    -0.2037   YY=    27.1988   ZY=     0.3775
   XZ=    -1.3398   YZ=     1.6341   ZZ=    25.3062
   Eigenvalues:    24.0935    27.2799    30.6542
     13  H    Isotropic =    27.8222   Anisotropy =    11.3999
   XX=    26.2514   YX=    -4.4116   ZX=     1.5277
   XY=    -4.0323   YY=    33.4631   ZY=     1.2067
   XZ=     1.6625   YZ=    -0.5752   ZZ=    23.7520
   Eigenvalues:    22.4172    25.6272    35.4221
     14  H    Isotropic =    27.2028   Anisotropy =     7.4112
   XX=    27.1629   YX=    -1.0950   ZX=     3.5259
   XY=    -1.5232   YY=    26.8174   ZY=    -3.4349
   XZ=     2.1696   YZ=    -2.6535   ZZ=    27.6280
   Eigenvalues:    23.7588    25.7059    32.1436
     15  H    Isotropic =    26.1172   Anisotropy =     7.5737
   XX=    30.7130   YX=     1.6295   ZX=     1.1723
   XY=     1.1828   YY=    24.1338   ZY=     0.8554
   XZ=     0.7545   YZ=     0.9146   ZZ=    23.5049
   Eigenvalues:    22.8801    24.3053    31.1663
     16  H    Isotropic =    27.6412   Anisotropy =     6.7887
   XX=    25.4922   YX=    -1.4699   ZX=    -2.2680
   XY=    -0.8984   YY=    30.5425   ZY=     1.4461
   XZ=    -2.4707   YZ=     2.7234   ZZ=    26.8887
   Eigenvalues:    23.7045    27.0520    32.1669
     17  H    Isotropic =    27.7435   Anisotropy =     4.6004
   XX=    27.7719   YX=    -2.6431   ZX=     0.8344
   XY=    -2.3406   YY=    25.5646   ZY=    -0.4158
   XZ=     0.8447   YZ=    -1.1683   ZZ=    29.8941
   Eigenvalues:    23.9355    28.4846    30.8105
     18  H    Isotropic =    27.8256   Anisotropy =    16.7010
   XX=    27.6233   YX=     1.6334   ZX=    -1.3872
   XY=     0.6634   YY=    18.7606   ZY=    -5.8749
   XZ=    -1.8553   YZ=    -5.2565   ZZ=    37.0929
   Eigenvalues:    17.1597    27.3575    38.9596
     19  H    Isotropic =    29.5296   Anisotropy =    21.2057
   XX=    22.6145   YX=    -1.8747   ZX=    -2.1011
   XY=    -1.3322   YY=    34.6810   ZY=   -10.5182
   XZ=    -0.7706   YZ=   -10.5625   ZZ=    31.2934
   Eigenvalues:    20.3232    24.5990    43.6667
     20  H    Isotropic =    29.8564   Anisotropy =    19.6513
   XX=    25.4171   YX=    -6.3633   ZX=    -2.4483
   XY=    -6.0506   YY=    40.7331   ZY=    -2.0920
   XZ=    -1.9008   YZ=    -0.9077   ZZ=    23.4189
   Eigenvalues:    20.7553    25.8565    42.9573
     21  H    Isotropic =    27.5332   Anisotropy =     5.4918
   XX=    27.2998   YX=     1.1991   ZX=    -1.3637
   XY=     0.6155   YY=    25.1714   ZY=     3.3256
   XZ=     0.3315   YZ=     1.7308   ZZ=    30.1283
   Eigenvalues:    23.8022    27.6029    31.1944
 End of Minotr Frequency-dependent properties file   721 does not exist.
 End of Minotr Frequency-dependent properties file   722 does not exist.

 **********************************************************************

            Population analysis using the SCF density.

 **********************************************************************

 Orbital symmetries:
       Occupied  (A) (A) (A) (A) (A) (A) (A) (A) (A) (A) (A) (A)
                 (A) (A) (A) (A) (A) (A) (A) (A) (A) (A) (A) (A)
                 (A) (A) (A) (A) (A) (A) (A) (A) (A) (A) (A) (A)
                 (A) (A) (A) (A) (A) (A) (A)
       Virtual   (A) (A) (A) (A) (A) (A) (A) (A) (A) (A) (A) (A)
                 (A) (A) (A) (A) (A) (A) (A) (A) (A) (A) (A) (A)
                 (A) (A) (A) (A) (A) (A) (A) (A) (A) (A) (A) (A)
                 (A) (A) (A) (A) (A) (A) (A) (A) (A) (A) (A) (A)
                 (A) (A) (A) (A) (A) (A) (A) (A) (A) (A) (A) (A)
                 (A) (A) (A) (A) (A) (A) (A) (A) (A) (A) (A) (A)
                 (A) (A) (A) (A) (A) (A) (A) (A) (A) (A) (A) (A)
                 (A) (A) (A) (A) (A) (A) (A) (A) (A) (A) (A) (A)
                 (A) (A) (A) (A) (A) (A) (A) (A) (A) (A) (A) (A)
                 (A) (A) (A) (A) (A) (A) (A) (A) (A) (A) (A) (A)
                 (A) (A) (A) (A) (A) (A) (A) (A) (A) (A) (A) (A)
                 (A) (A) (A) (A) (A) (A) (A) (A) (A) (A) (A) (A)
                 (A) (A) (A) (A) (A) (A) (A) (A) (A) (A) (A) (A)
                 (A) (A) (A) (A) (A) (A) (A) (A) (A) (A) (A) (A)
                 (A) (A) (A) (A) (A) (A) (A) (A) (A) (A) (A) (A)
                 (A) (A) (A) (A) (A) (A) (A) (A) (A) (A) (A) (A)
                 (A) (A) (A) (A) (A) (A) (A) (A) (A) (A) (A) (A)
                 (A) (A) (A) (A) (A) (A) (A) (A) (A) (A) (A) (A)
 The electronic state is 1-A.
 Alpha  occ. eigenvalues --  -19.27453 -19.27301 -19.26618 -19.26592 -19.25829
 Alpha  occ. eigenvalues --  -10.35709 -10.31948 -10.31402 -10.31253 -10.31189
 Alpha  occ. eigenvalues --  -10.30209  -1.14082  -1.08819  -1.07046  -1.05533
 Alpha  occ. eigenvalues --   -1.03768  -0.81756  -0.80749  -0.70610  -0.68535
 Alpha  occ. eigenvalues --   -0.64165  -0.61200  -0.57630  -0.55532  -0.54898
 Alpha  occ. eigenvalues --   -0.52059  -0.50032  -0.48421  -0.47199  -0.46554
 Alpha  occ. eigenvalues --   -0.44315  -0.43303  -0.42428  -0.40972  -0.37952
 Alpha  occ. eigenvalues --   -0.37577  -0.37331  -0.35260  -0.33499  -0.32827
 Alpha  occ. eigenvalues --   -0.30077  -0.28772  -0.27528
 Alpha virt. eigenvalues --    0.00258   0.01413   0.02082   0.02618   0.03799
 Alpha virt. eigenvalues --    0.04501   0.05268   0.05304   0.06080   0.08184
 Alpha virt. eigenvalues --    0.08926   0.09138   0.09787   0.10923   0.12058
 Alpha virt. eigenvalues --    0.12388   0.12454   0.13406   0.13649   0.14584
 Alpha virt. eigenvalues --    0.15031   0.15993   0.16627   0.17236   0.17649
 Alpha virt. eigenvalues --    0.18330   0.18964   0.19692   0.19983   0.20395
 Alpha virt. eigenvalues --    0.21959   0.22193   0.23181   0.24399   0.24715
 Alpha virt. eigenvalues --    0.25217   0.25359   0.25503   0.26385   0.27186
 Alpha virt. eigenvalues --    0.27657   0.28296   0.29470   0.29681   0.31105
 Alpha virt. eigenvalues --    0.31633   0.32021   0.32868   0.33304   0.34252
 Alpha virt. eigenvalues --    0.34826   0.35158   0.36165   0.36616   0.37856
 Alpha virt. eigenvalues --    0.38235   0.39047   0.39248   0.39839   0.40597
 Alpha virt. eigenvalues --    0.41948   0.42594   0.43808   0.46158   0.47035
 Alpha virt. eigenvalues --    0.50169   0.65237   0.65943   0.67750   0.69743
 Alpha virt. eigenvalues --    0.70351   0.72134   0.73781   0.76411   0.78407
 Alpha virt. eigenvalues --    0.80043   0.81602   0.83120   0.83965   0.84786
 Alpha virt. eigenvalues --    0.89805   0.92034   0.95922   0.98568   0.99767
 Alpha virt. eigenvalues --    1.02398   1.03325   1.04287   1.06249   1.07461
 Alpha virt. eigenvalues --    1.07988   1.10258   1.11747   1.13186   1.15084
 Alpha virt. eigenvalues --    1.17348   1.21058   1.23829   1.25319   1.26698
 Alpha virt. eigenvalues --    1.27252   1.28840   1.31606   1.32870   1.34429
 Alpha virt. eigenvalues --    1.36306   1.37504   1.39138   1.39714   1.40293
 Alpha virt. eigenvalues --    1.44131   1.46542   1.48006   1.49679   1.51867
 Alpha virt. eigenvalues --    1.52509   1.57387   1.59060   1.59271   1.60278
 Alpha virt. eigenvalues --    1.60891   1.62639   1.67411   1.68623   1.69357
 Alpha virt. eigenvalues --    1.70355   1.73039   1.75586   1.76570   1.79604
 Alpha virt. eigenvalues --    1.79843   1.84675   1.85559   1.88004   1.90139
 Alpha virt. eigenvalues --    1.90814   1.93837   1.96134   1.96839   1.99423
 Alpha virt. eigenvalues --    2.01368   2.04027   2.05934   2.07802   2.08237
 Alpha virt. eigenvalues --    2.09882   2.11354   2.13462   2.14503   2.17745
 Alpha virt. eigenvalues --    2.20748   2.21382   2.24725   2.27515   2.29423
 Alpha virt. eigenvalues --    2.32033   2.34581   2.37869   2.39259   2.43793
 Alpha virt. eigenvalues --    2.45129   2.48474   2.49445   2.51389   2.54047
 Alpha virt. eigenvalues --    2.55846   2.57038   2.60749   2.63531   2.65459
 Alpha virt. eigenvalues --    2.66056   2.67380   2.68638   2.69814   2.72773
 Alpha virt. eigenvalues --    2.72936   2.73827   2.75382   2.76184   2.81345
 Alpha virt. eigenvalues --    2.81677   2.83654   2.87455   2.89050   2.91209
 Alpha virt. eigenvalues --    2.92057   2.96146   2.98932   3.01377   3.03303
 Alpha virt. eigenvalues --    3.04502   3.08202   3.11019   3.15735   3.22261
 Alpha virt. eigenvalues --    3.36286   3.42977   3.46711   3.47349   3.49173
 Alpha virt. eigenvalues --    3.50001   3.53761   3.55886   3.57505   3.59321
 Alpha virt. eigenvalues --    4.29948   4.37000   4.42799   4.48335   4.50296
 Alpha virt. eigenvalues --    4.61120   4.62855   4.83709   4.89073   4.95403
 Alpha virt. eigenvalues --    5.03784
          Condensed to atoms (all electrons):
              1          2          3          4          5          6
     1  C    5.941969  -0.711212  -0.643174  -0.583912   0.547718   0.333421
     2  C   -0.711212   7.527310   0.145045   0.653760  -0.466028  -1.094202
     3  C   -0.643174   0.145045   6.688600   0.574742  -1.050438  -0.338633
     4  C   -0.583912   0.653760   0.574742   7.078960  -1.285370  -0.430354
     5  C    0.547718  -0.466028  -1.050438  -1.285370   7.490416   0.147110
     6  C    0.333421  -1.094202  -0.338633  -0.430354   0.147110   6.860019
     7  O    0.020773   0.043056   0.286491  -0.085172  -0.115401  -0.010422
     8  O    0.185451  -0.125911   0.373780   0.036244  -0.186047  -0.019503
     9  O    0.062034  -0.207461  -0.025502  -0.155809   0.065848   0.356577
    10  O    0.083536  -0.062604  -0.104965  -0.056743   0.173108  -0.077165
    11  O    0.009612  -0.024790  -0.140472  -0.071033   0.268133  -0.005196
    12  H    0.498869  -0.181250   0.011446  -0.029494   0.012645   0.033715
    13  H    0.364530   0.007227  -0.011133  -0.000346   0.005100   0.018793
    14  H    0.004499   0.283973   0.002889   0.003573   0.002006   0.038806
    15  H    0.002703   0.034604   0.338555   0.015288  -0.019060  -0.003882
    16  H   -0.006177   0.020751  -0.005511   0.320889   0.030619  -0.026836
    17  H    0.014913  -0.031833   0.008175  -0.006799   0.304142   0.030657
    18  H    0.017369  -0.021363  -0.011858  -0.072374   0.035846   0.017660
    19  H   -0.007845   0.003062   0.017471   0.089218  -0.083793   0.008563
    20  H   -0.000880   0.005266   0.015293  -0.020115   0.023626  -0.014035
    21  H    0.036409  -0.059428  -0.032330  -0.079927   0.047606   0.399611
              7          8          9         10         11         12
     1  C    0.020773   0.185451   0.062034   0.083536   0.009612   0.498869
     2  C    0.043056  -0.125911  -0.207461  -0.062604  -0.024790  -0.181250
     3  C    0.286491   0.373780  -0.025502  -0.104965  -0.140472   0.011446
     4  C   -0.085172   0.036244  -0.155809  -0.056743  -0.071033  -0.029494
     5  C   -0.115401  -0.186047   0.065848   0.173108   0.268133   0.012645
     6  C   -0.010422  -0.019503   0.356577  -0.077165  -0.005196   0.033715
     7  O    8.253225  -0.050274   0.011692   0.010702   0.020056   0.013386
     8  O   -0.050274   8.269716  -0.005137  -0.005868   0.007794  -0.043402
     9  O    0.011692  -0.005137   8.221036  -0.001331   0.000827   0.010025
    10  O    0.010702  -0.005868  -0.001331   8.448765   0.003646  -0.000974
    11  O    0.020056   0.007794   0.000827   0.003646   8.270197  -0.000052
    12  H    0.013386  -0.043402   0.010025  -0.000974  -0.000052   0.527003
    13  H   -0.003406  -0.052510  -0.002121   0.000543   0.000058  -0.038081
    14  H   -0.028631   0.006519   0.000094  -0.000934   0.000214   0.002812
    15  H   -0.046421  -0.042705  -0.000105  -0.000249   0.006584  -0.000241
    16  H   -0.001383   0.000656   0.005422  -0.038535  -0.006735  -0.000028
    17  H    0.009805  -0.005083  -0.000821  -0.003613  -0.034817   0.000036
    18  H    0.000056  -0.000419   0.258642   0.032310  -0.000126  -0.000660
    19  H   -0.000239  -0.000414  -0.001800   0.229708  -0.000049   0.000110
    20  H   -0.000657  -0.000233   0.000170  -0.000254   0.240007   0.000000
    21  H    0.005827  -0.001644  -0.046656   0.009504   0.001323   0.000161
             13         14         15         16         17         18
     1  C    0.364530   0.004499   0.002703  -0.006177   0.014913   0.017369
     2  C    0.007227   0.283973   0.034604   0.020751  -0.031833  -0.021363
     3  C   -0.011133   0.002889   0.338555  -0.005511   0.008175  -0.011858
     4  C   -0.000346   0.003573   0.015288   0.320889  -0.006799  -0.072374
     5  C    0.005100   0.002006  -0.019060   0.030619   0.304142   0.035846
     6  C    0.018793   0.038806  -0.003882  -0.026836   0.030657   0.017660
     7  O   -0.003406  -0.028631  -0.046421  -0.001383   0.009805   0.000056
     8  O   -0.052510   0.006519  -0.042705   0.000656  -0.005083  -0.000419
     9  O   -0.002121   0.000094  -0.000105   0.005422  -0.000821   0.258642
    10  O    0.000543  -0.000934  -0.000249  -0.038535  -0.003613   0.032310
    11  O    0.000058   0.000214   0.006584  -0.006735  -0.034817  -0.000126
    12  H   -0.038081   0.002812  -0.000241  -0.000028   0.000036  -0.000660
    13  H    0.541825  -0.003480   0.000309   0.000004  -0.000009   0.000008
    14  H   -0.003480   0.501455   0.000007  -0.000116   0.000019  -0.000107
    15  H    0.000309   0.000007   0.535581  -0.000144  -0.002699   0.000000
    16  H    0.000004  -0.000116  -0.000144   0.542369  -0.003211  -0.000224
    17  H   -0.000009   0.000019  -0.002699  -0.003211   0.544374  -0.000028
    18  H    0.000008  -0.000107   0.000000  -0.000224  -0.000028   0.350142
    19  H   -0.000002   0.000004   0.000003  -0.009295   0.001786  -0.001147
    20  H    0.000000   0.000000  -0.000238   0.003413  -0.007487  -0.000003
    21  H   -0.000141  -0.006277  -0.000038  -0.005018  -0.000144   0.005550
             19         20         21
     1  C   -0.007845  -0.000880   0.036409
     2  C    0.003062   0.005266  -0.059428
     3  C    0.017471   0.015293  -0.032330
     4  C    0.089218  -0.020115  -0.079927
     5  C   -0.083793   0.023626   0.047606
     6  C    0.008563  -0.014035   0.399611
     7  O   -0.000239  -0.000657   0.005827
     8  O   -0.000414  -0.000233  -0.001644
     9  O   -0.001800   0.000170  -0.046656
    10  O    0.229708  -0.000254   0.009504
    11  O   -0.000049   0.240007   0.001323
    12  H    0.000110   0.000000   0.000161
    13  H   -0.000002   0.000000  -0.000141
    14  H    0.000004   0.000000  -0.006277
    15  H    0.000003  -0.000238  -0.000038
    16  H   -0.009295   0.003413  -0.005018
    17  H    0.001786  -0.007487  -0.000144
    18  H   -0.001147  -0.000003   0.005550
    19  H    0.340760   0.000044  -0.000167
    20  H    0.000044   0.362092   0.000148
    21  H   -0.000167   0.000148   0.539352
 Mulliken atomic charges:
              1
     1  C   -0.170607
     2  C    0.262029
     3  C   -0.098473
     4  C    0.104774
     5  C    0.052214
     6  C   -0.224705
     7  O   -0.333060
     8  O   -0.341010
     9  O   -0.545621
    10  O   -0.638587
    11  O   -0.545180
    12  H    0.183973
    13  H    0.172834
    14  H    0.192673
    15  H    0.182147
    16  H    0.179090
    17  H    0.182636
    18  H    0.390727
    19  H    0.414022
    20  H    0.393843
    21  H    0.186280
 Sum of Mulliken atomic charges =   0.00000
 Mulliken charges with hydrogens summed into heavy atoms:
              1
     1  C    0.186200
     2  C    0.454702
     3  C    0.083675
     4  C    0.283864
     5  C    0.234850
     6  C   -0.038425
     7  O   -0.333060
     8  O   -0.341010
     9  O   -0.154894
    10  O   -0.224565
    11  O   -0.151337
 Sum of Mulliken charges with hydrogens summed into heavy atoms =   0.00000
 Electronic spatial extent (au):  <R**2>=           1383.5469
 Charge=              0.0000 electrons
 Dipole moment (field-independent basis, Debye):
    X=              0.1312    Y=             -4.1487    Z=              2.6442  Tot=              4.9215
 Quadrupole moment (field-independent basis, Debye-Ang):
   XX=            -70.1612   YY=            -52.3251   ZZ=            -68.2703
   XY=             -6.8470   XZ=              0.1376   YZ=             -6.7305
 Traceless Quadrupole moment (field-independent basis, Debye-Ang):
   XX=             -6.5757   YY=             11.2605   ZZ=             -4.6848
   XY=             -6.8470   XZ=              0.1376   YZ=             -6.7305
 Octapole moment (field-independent basis, Debye-Ang**2):
  XXX=             18.3004  YYY=            -35.9534  ZZZ=              4.7692  XYY=              3.1784
  XXY=             -1.7221  XXZ=             23.6773  XZZ=             -7.6304  YZZ=            -14.5697
  YYZ=              9.6577  XYZ=              3.4283
 Hexadecapole moment (field-independent basis, Debye-Ang**3):
 XXXX=           -772.3175 YYYY=           -519.2925 ZZZZ=           -347.3487 XXXY=             -8.0292
 XXXZ=            -29.9262 YYYX=            -48.8158 YYYZ=            -26.4491 ZZZX=             -2.0861
 ZZZY=            -32.1781 XXYY=           -192.9577 XXZZ=           -196.0555 YYZZ=           -147.1166
 XXYZ=            -14.8579 YYXZ=            -13.2311 ZZXY=             -5.7004
 N-N= 7.314251379709D+02 E-N=-2.893156296869D+03  KE= 6.052030288312D+02
 1\1\GINC-COMPUTE-8-20\SP\RmPW1PW91\6-31+G(d,p)\C6H10O5\MMARCARINO.IQUI
 R\12-Apr-2019\0\\# mpw1pw91/6-31+g** nmr scrf=(pcm,solvent=water)\\com
 ment\\0,1\C,0,-0.684914,1.723145,0.580489\C,0,-0.605133,1.0725,-0.8074
 39\C,0,1.35589,0.746569,0.17249\C,0,-0.223743,-1.256468,0.174018\C,0,1
 .243787,-0.77737,0.334023\C,0,-1.007906,-0.415023,-0.862695\O,0,0.8098
 41,1.144234,-1.071213\O,0,0.593333,1.412208,1.171277\O,0,-2.403915,-0.
 594848,-0.697065\O,0,-0.95463,-1.151995,1.404492\O,0,2.080105,-1.34021
 5,-0.673435\H,0,-1.487736,1.320978,1.201705\H,0,-0.788399,2.811258,0.5
 05562\H,0,-1.131237,1.637547,-1.579382\H,0,2.398754,1.072236,0.215987\
 H,0,-0.211289,-2.303603,-0.154892\H,0,1.591839,-1.051085,1.339843\H,0,
 -2.516552,-0.803304,0.250364\H,0,-0.792334,-1.951884,1.927629\H,0,2.20
 8551,-2.27837,-0.461152\H,0,-0.737359,-0.768968,-1.863428\\Version=EM6
 4L-G09RevC.01\State=1-A\HF=-610.6475662\RMSD=9.534e-09\Dipole=0.051599
 8,-1.6322297,1.0403239\Quadrupole=-4.8888642,8.3718692,-3.483005,-5.09
 0606,0.1022866,-5.0039716\PG=C01 [X(C6H10O5)]\\@


 TRUST EVERYONE, BUT CUT THE CARDS.
 Job cpu time:  0 days  0 hours 20 minutes 59.2 seconds.
 File lengths (MBytes):  RWF=     82 Int=      0 D2E=      0 Chk=      5 Scr=      1
 Normal termination of Gaussian 09 at Fri Apr 12 10:51:35 2019.
