 Entering Gaussian System, Link 0=g09
 Input=/home/asarotti.iquir/SCF3/02_RSS_Levo10_OPTB_energy_b3lyp_smd.gjc
 Output=/home/asarotti.iquir/SCF3/02_RSS_Levo10_OPTB_energy_b3lyp_smd.log
 Initial command:
 /share/apps/Gaussian09/EM64T.SSE4.2-enabled/g09/l1.exe /tmp/Gau-16337.inp -scrdir=/tmp/
 Entering Link 1 = /share/apps/Gaussian09/EM64T.SSE4.2-enabled/g09/l1.exe PID=     16338.
  
 Copyright (c) 1988,1990,1992,1993,1995,1998,2003,2009,2011,
            Gaussian, Inc.  All Rights Reserved.
  
 This is part of the Gaussian(R) 09 program.  It is based on
 the Gaussian(R) 03 system (copyright 2003, Gaussian, Inc.),
 the Gaussian(R) 98 system (copyright 1998, Gaussian, Inc.),
 the Gaussian(R) 94 system (copyright 1995, Gaussian, Inc.),
 the Gaussian 92(TM) system (copyright 1992, Gaussian, Inc.),
 the Gaussian 90(TM) system (copyright 1990, Gaussian, Inc.),
 the Gaussian 88(TM) system (copyright 1988, Gaussian, Inc.),
 the Gaussian 86(TM) system (copyright 1986, Carnegie Mellon
 University), and the Gaussian 82(TM) system (copyright 1983,
 Carnegie Mellon University). Gaussian is a federally registered
 trademark of Gaussian, Inc.
  
 This software contains proprietary and confidential information,
 including trade secrets, belonging to Gaussian, Inc.
  
 This software is provided under written license and may be
 used, copied, transmitted, or stored only in accord with that
 written license.
  
 The following legend is applicable only to US Government
 contracts under FAR:
  
                    RESTRICTED RIGHTS LEGEND
  
 Use, reproduction and disclosure by the US Government is
 subject to restrictions as set forth in subparagraphs (a)
 and (c) of the Commercial Computer Software - Restricted
 Rights clause in FAR 52.227-19.
  
 Gaussian, Inc.
 340 Quinnipiac St., Bldg. 40, Wallingford CT 06492
  
  
 ---------------------------------------------------------------
 Warning -- This program may not be used in any manner that
 competes with the business of Gaussian, Inc. or will provide
 assistance to any competitor of Gaussian, Inc.  The licensee
 of this program is prohibited from giving any competitor of
 Gaussian, Inc. access to this program.  By using this program,
 the user acknowledges that Gaussian, Inc. is engaged in the
 business of creating and licensing software in the field of
 computational chemistry and represents and warrants to the
 licensee that it is not a competitor of Gaussian, Inc. and that
 it will not use this program in any manner prohibited above.
 ---------------------------------------------------------------
  

 Cite this work as:
 Gaussian 09, Revision C.01,
 M. J. Frisch, G. W. Trucks, H. B. Schlegel, G. E. Scuseria, 
 M. A. Robb, J. R. Cheeseman, G. Scalmani, V. Barone, B. Mennucci, 
 G. A. Petersson, H. Nakatsuji, M. Caricato, X. Li, H. P. Hratchian, 
 A. F. Izmaylov, J. Bloino, G. Zheng, J. L. Sonnenberg, M. Hada, 
 M. Ehara, K. Toyota, R. Fukuda, J. Hasegawa, M. Ishida, T. Nakajima, 
 Y. Honda, O. Kitao, H. Nakai, T. Vreven, J. A. Montgomery, Jr., 
 J. E. Peralta, F. Ogliaro, M. Bearpark, J. J. Heyd, E. Brothers, 
 K. N. Kudin, V. N. Staroverov, T. Keith, R. Kobayashi, J. Normand, 
 K. Raghavachari, A. Rendell, J. C. Burant, S. S. Iyengar, J. Tomasi, 
 M. Cossi, N. Rega, J. M. Millam, M. Klene, J. E. Knox, J. B. Cross, 
 V. Bakken, C. Adamo, J. Jaramillo, R. Gomperts, R. E. Stratmann, 
 O. Yazyev, A. J. Austin, R. Cammi, C. Pomelli, J. W. Ochterski, 
 R. L. Martin, K. Morokuma, V. G. Zakrzewski, G. A. Voth, 
 P. Salvador, J. J. Dannenberg, S. Dapprich, A. D. Daniels, 
 O. Farkas, J. B. Foresman, J. V. Ortiz, J. Cioslowski, 
 and D. J. Fox, Gaussian, Inc., Wallingford CT, 2010.
 
 ******************************************
 Gaussian 09:  EM64L-G09RevC.01 23-Sep-2011
                15-Apr-2019 
 ******************************************
 %nprocshared=4
 Will use up to    4 processors via shared memory.
 -----------------------------------------------------------
 # B3LYP/6-31+G** test scrf=(pcm,solvent=water,smd,dovacuum)
 -----------------------------------------------------------
 1/38=1/1;
 2/12=2,17=6,18=5,40=1/2;
 3/5=1,6=6,7=111,11=2,16=1,25=1,30=1,70=32101,72=1,74=-5/1,2,3;
 4//1;
 5/5=2,38=5,53=1/2;
 6/7=2,8=2,9=2,10=2,28=1/1;
 99/5=1,9=1/99;
 -------
 comment
 -------
 Charge =  0 Multiplicity = 1
 Symbolic Z-Matrix:
 6                    -0.59146   1.77253   0.48907 
 6                    -0.53245   1.03103  -0.85461 
 6                     1.39772   0.66324   0.19156 
 6                    -0.2765   -1.25718   0.26368 
 6                     1.21059  -0.85053   0.38865 
 6                    -1.02331  -0.4231   -0.81605 
 8                     0.88916   0.99372  -1.09968 
 8                     0.66089   1.43757   1.11764 
 8                    -2.42737  -0.41732  -0.53995 
 8                    -0.905    -1.08481   1.52777 
 8                     2.01818  -1.5322   -0.56781 
 1                    -1.42131   1.45323   1.12179 
 1                    -0.63618   2.85685   0.34148 
 1                    -1.01022   1.57806  -1.66922 
 1                     2.45491   0.94055   0.2275 
 1                    -0.30108  -2.31879  -0.02781 
 1                     1.56945  -1.15331   1.37687 
 1                    -2.82039  -1.21148  -0.93708 
 1                    -1.85328  -0.98312   1.31864 
 1                     1.85296  -1.10033  -1.42435 
 1                    -0.82939  -0.85326  -1.80533 
 
                          Input orientation:                          
 ---------------------------------------------------------------------
 Center     Atomic      Atomic             Coordinates (Angstroms)
 Number     Number       Type             X           Y           Z
 ---------------------------------------------------------------------
      1          6           0       -0.591455    1.772526    0.489072
      2          6           0       -0.532449    1.031034   -0.854614
      3          6           0        1.397717    0.663239    0.191557
      4          6           0       -0.276495   -1.257180    0.263676
      5          6           0        1.210586   -0.850532    0.388651
      6          6           0       -1.023306   -0.423100   -0.816047
      7          8           0        0.889160    0.993722   -1.099678
      8          8           0        0.660886    1.437566    1.117636
      9          8           0       -2.427367   -0.417318   -0.539949
     10          8           0       -0.904996   -1.084807    1.527772
     11          8           0        2.018185   -1.532204   -0.567812
     12          1           0       -1.421314    1.453230    1.121786
     13          1           0       -0.636175    2.856854    0.341476
     14          1           0       -1.010222    1.578059   -1.669224
     15          1           0        2.454910    0.940551    0.227500
     16          1           0       -0.301079   -2.318786   -0.027808
     17          1           0        1.569454   -1.153310    1.376865
     18          1           0       -2.820387   -1.211479   -0.937079
     19          1           0       -1.853284   -0.983120    1.318640
     20          1           0        1.852959   -1.100327   -1.424345
     21          1           0       -0.829393   -0.853260   -1.805328
 ---------------------------------------------------------------------
                    Distance matrix (angstroms):
                    1          2          3          4          5
     1  C    0.000000
     2  C    1.535833   0.000000
     3  C    2.296919   2.226048   0.000000
     4  C    3.054361   2.559689   2.548764   0.000000
     5  C    3.184002   2.850293   1.537975   1.546736   0.000000
     6  C    2.590483   1.535231   2.838442   1.555384   2.573766
     7  O    2.307137   1.443059   1.426582   2.878202   2.391592
     8  O    1.440711   2.340745   1.414258   2.978185   2.463530
     9  O    3.037248   2.405712   4.041531   2.444879   3.779507
    10  O    3.056396   3.208011   3.184905   1.422204   2.414160
    11  O    4.341482   3.627420   2.404494   2.456128   1.425382
    12  H    1.091303   2.207824   3.071864   3.064847   3.573752
    13  H    1.095240   2.185179   2.995186   4.130460   4.142157
    14  H    2.207130   1.091372   3.177668   3.508994   3.881352
    15  H    3.168745   3.178596   1.093550   3.505981   2.186845
    16  H    4.134044   3.458097   3.438968   1.101170   2.148101
    17  H    3.744091   3.764154   2.175844   2.158126   1.094088
    18  H    3.988274   3.204735   4.751925   2.813412   4.258707
    19  H    3.142289   3.244142   3.814423   1.916852   3.204646
    20  H    4.229611   3.249225   2.434861   2.721873   1.939586
    21  H    3.495088   2.131337   3.353705   2.179363   2.995841
                    6          7          8          9         10
     6  C    0.000000
     7  O    2.396948   0.000000
     8  O    3.168235   2.272793   0.000000
     9  O    1.430962   3.647421   3.965538   0.000000
    10  O    2.438307   3.800365   2.997093   2.653041   0.000000
    11  O    3.246906   2.817425   3.674579   4.583304   3.624448
    12  H    2.726577   3.237953   2.082263   2.696749   2.621648
    13  H    3.499690   2.806213   2.073444   3.834773   4.125076
    14  H    2.175481   2.067241   3.252527   2.695383   4.162056
    15  H    3.878985   2.053242   2.063465   5.125370   4.133007
    16  H    2.176363   3.679441   4.043216   2.898098   2.075391
    17  H    3.473395   3.347508   2.757777   4.493377   2.479994
    18  H    1.966136   4.318575   4.833069   0.971014   3.124141
    19  H    2.357833   4.156581   3.495880   2.025847   0.976384
    20  H    3.016880   2.327952   3.784654   4.423782   4.039994
    21  H    1.096046   2.619677   4.001566   2.084406   3.341988
                   11         12         13         14         15
    11  O    0.000000
    12  H    4.857748   0.000000
    13  H    5.209248   1.787593   0.000000
    14  H    4.478626   2.823883   2.412083   0.000000
    15  H    2.633964   4.010947   3.638683   4.001390   0.000000
    16  H    2.507848   4.099341   5.199607   4.287485   4.275972
    17  H    2.031425   3.975401   4.692360   4.836710   2.547416
    18  H    4.863230   3.646506   4.791327   3.405034   5.815173
    19  H    4.341482   2.482167   4.145070   4.024639   4.842689
    20  H    0.973379   4.870760   4.997319   3.928298   2.693719
    21  H    3.178225   3.773362   4.290810   2.441830   4.258731
                   16         17         18         19         20
    16  H    0.000000
    17  H    2.613491   0.000000
    18  H    2.898243   4.962703   0.000000
    19  H    2.450769   3.427461   2.464894   0.000000
    20  H    2.841626   2.816018   4.699994   4.612368   0.000000
    21  H    2.363569   3.996354   2.201416   3.290044   2.720515
                   21
    21  H    0.000000
 Stoichiometry    C6H10O5
 Framework group  C1[X(C6H10O5)]
 Deg. of freedom    57
 Full point group                 C1      NOp   1
 Largest Abelian subgroup         C1      NOp   1
 Largest concise Abelian subgroup C1      NOp   1
                         Standard orientation:                         
 ---------------------------------------------------------------------
 Center     Atomic      Atomic             Coordinates (Angstroms)
 Number     Number       Type             X           Y           Z
 ---------------------------------------------------------------------
      1          6           0       -0.591455    1.772526    0.489072
      2          6           0       -0.532449    1.031034   -0.854614
      3          6           0        1.397717    0.663239    0.191557
      4          6           0       -0.276495   -1.257180    0.263676
      5          6           0        1.210586   -0.850532    0.388651
      6          6           0       -1.023306   -0.423100   -0.816047
      7          8           0        0.889160    0.993722   -1.099678
      8          8           0        0.660886    1.437566    1.117636
      9          8           0       -2.427367   -0.417318   -0.539949
     10          8           0       -0.904996   -1.084807    1.527772
     11          8           0        2.018185   -1.532204   -0.567812
     12          1           0       -1.421314    1.453230    1.121786
     13          1           0       -0.636175    2.856854    0.341476
     14          1           0       -1.010222    1.578059   -1.669224
     15          1           0        2.454910    0.940551    0.227500
     16          1           0       -0.301079   -2.318786   -0.027808
     17          1           0        1.569454   -1.153310    1.376865
     18          1           0       -2.820387   -1.211479   -0.937079
     19          1           0       -1.853284   -0.983120    1.318640
     20          1           0        1.852959   -1.100327   -1.424345
     21          1           0       -0.829393   -0.853260   -1.805328
 ---------------------------------------------------------------------
 Rotational constants (GHZ):      1.4788455      1.2472052      1.0098745
 Standard basis: 6-31+G(d,p) (6D, 7F)
 There are   259 symmetry adapted basis functions of A   symmetry.
 Integral buffers will be    131072 words long.
 Raffenetti 2 integral format.
 Two-electron integral symmetry is turned on.
   259 basis functions,   422 primitive gaussians,   259 cartesian basis functions
    43 alpha electrons       43 beta electrons
       nuclear repulsion energy       732.9615889750 Hartrees.
 NAtoms=   21 NActive=   21 NUniq=   21 SFac= 1.00D+00 NAtFMM=   60 NAOKFM=F Big=F
 ------------------------------------------------------------------------------
 Polarizable Continuum Model (PCM)
 =================================
 Model                : C-PCM.
 Atomic radii         : SMD-Coulomb.
 Polarization charges : Total charges.
 Charge compensation  : None.
 Solution method      : Matrix inversion.
 Cavity type          : VdW (van der Waals Surface) (Alpha=1.000).
 Cavity algorithm     : GePol (No added spheres)
                        Default sphere list used, NSphG=   21.
                        Lebedev-Laikov grids with approx.  5.0 points / Ang**2.
                        Smoothing algorithm: Karplus/York (Gamma=1.0000).
                        Polarization charges: spherical gaussians, with
                                              point-specific exponents (IZeta= 3).
                        Self-potential: point-specific (ISelfS= 7).
                        Self-field    : sphere-specific E.n sum rule (ISelfD= 2).
 Solvent              : Water, Eps=  78.355300 Eps(inf)=   1.777849
 ------------------------------------------------------------------------------
 ------------------------------------------------------------------------------
 Atomic radii for non-electrostatic terms: SMD-CDS.
 ------------------------------------------------------------------------------
 Nuclear repulsion after PCM non-electrostatic terms =      732.9665109800 Hartrees.
 One-electron integrals computed using PRISM.
 NBasis=   259 RedAO= T  NBF=   259
 NBsUse=   259 1.00D-06 NBFU=   259
 Harris functional with IExCor=  402 diagonalized for initial guess.
 ExpMin= 4.38D-02 ExpMax= 5.48D+03 ExpMxC= 8.25D+02 IAcc=2 IRadAn=         4 AccDes= 0.00D+00
 HarFok:  IExCor=  402 AccDes= 0.00D+00 IRadAn=         4 IDoV= 1
 ScaDFX=  1.000000  1.000000  1.000000  1.000000
 FoFCou: FMM=F IPFlag=           0 FMFlag=      100000 FMFlg1=           0
         NFxFlg=           0 DoJE=T BraDBF=F KetDBF=T FulRan=T
         Omega=  0.000000  0.000000  1.000000  0.000000  0.000000 ICntrl=     500 IOpCl=  0
         NMat0=    1 NMatS0=    1 NMatT0=    0 NMatD0=    1 NMtDS0=    0 NMtDT0=    0
         I1Cent=           4 NGrid=           0.
 Petite list used in FoFCou.
 Initial guess orbital symmetries:
       Occupied  (A) (A) (A) (A) (A) (A) (A) (A) (A) (A) (A) (A)
                 (A) (A) (A) (A) (A) (A) (A) (A) (A) (A) (A) (A)
                 (A) (A) (A) (A) (A) (A) (A) (A) (A) (A) (A) (A)
                 (A) (A) (A) (A) (A) (A) (A)
       Virtual   (A) (A) (A) (A) (A) (A) (A) (A) (A) (A) (A) (A)
                 (A) (A) (A) (A) (A) (A) (A) (A) (A) (A) (A) (A)
                 (A) (A) (A) (A) (A) (A) (A) (A) (A) (A) (A) (A)
                 (A) (A) (A) (A) (A) (A) (A) (A) (A) (A) (A) (A)
                 (A) (A) (A) (A) (A) (A) (A) (A) (A) (A) (A) (A)
                 (A) (A) (A) (A) (A) (A) (A) (A) (A) (A) (A) (A)
                 (A) (A) (A) (A) (A) (A) (A) (A) (A) (A) (A) (A)
                 (A) (A) (A) (A) (A) (A) (A) (A) (A) (A) (A) (A)
                 (A) (A) (A) (A) (A) (A) (A) (A) (A) (A) (A) (A)
                 (A) (A) (A) (A) (A) (A) (A) (A) (A) (A) (A) (A)
                 (A) (A) (A) (A) (A) (A) (A) (A) (A) (A) (A) (A)
                 (A) (A) (A) (A) (A) (A) (A) (A) (A) (A) (A) (A)
                 (A) (A) (A) (A) (A) (A) (A) (A) (A) (A) (A) (A)
                 (A) (A) (A) (A) (A) (A) (A) (A) (A) (A) (A) (A)
                 (A) (A) (A) (A) (A) (A) (A) (A) (A) (A) (A) (A)
                 (A) (A) (A) (A) (A) (A) (A) (A) (A) (A) (A) (A)
                 (A) (A) (A) (A) (A) (A) (A) (A) (A) (A) (A) (A)
                 (A) (A) (A) (A) (A) (A) (A) (A) (A) (A) (A) (A)
 The electronic state of the initial guess is 1-A.
 Requested convergence on RMS density matrix=1.00D-08 within 128 cycles.
 Requested convergence on MAX density matrix=1.00D-06.
 Requested convergence on             energy=1.00D-06.
 No special actions if energy rises.
 Error on total polarization charges =  0.05710
 SCF Done:  E(RB3LYP) =  -610.806638116     A.U. after   12 cycles
             Convg  =    0.6034D-08             -V/T =  2.0090
 SMD-CDS (non-electrostatic) energy       (kcal/mol) =       3.09
 (included in total energy above)

 **********************************************************************

            Population analysis using the SCF density.

 **********************************************************************

 Orbital symmetries:
       Occupied  (A) (A) (A) (A) (A) (A) (A) (A) (A) (A) (A) (A)
                 (A) (A) (A) (A) (A) (A) (A) (A) (A) (A) (A) (A)
                 (A) (A) (A) (A) (A) (A) (A) (A) (A) (A) (A) (A)
                 (A) (A) (A) (A) (A) (A) (A)
       Virtual   (A) (A) (A) (A) (A) (A) (A) (A) (A) (A) (A) (A)
                 (A) (A) (A) (A) (A) (A) (A) (A) (A) (A) (A) (A)
                 (A) (A) (A) (A) (A) (A) (A) (A) (A) (A) (A) (A)
                 (A) (A) (A) (A) (A) (A) (A) (A) (A) (A) (A) (A)
                 (A) (A) (A) (A) (A) (A) (A) (A) (A) (A) (A) (A)
                 (A) (A) (A) (A) (A) (A) (A) (A) (A) (A) (A) (A)
                 (A) (A) (A) (A) (A) (A) (A) (A) (A) (A) (A) (A)
                 (A) (A) (A) (A) (A) (A) (A) (A) (A) (A) (A) (A)
                 (A) (A) (A) (A) (A) (A) (A) (A) (A) (A) (A) (A)
                 (A) (A) (A) (A) (A) (A) (A) (A) (A) (A) (A) (A)
                 (A) (A) (A) (A) (A) (A) (A) (A) (A) (A) (A) (A)
                 (A) (A) (A) (A) (A) (A) (A) (A) (A) (A) (A) (A)
                 (A) (A) (A) (A) (A) (A) (A) (A) (A) (A) (A) (A)
                 (A) (A) (A) (A) (A) (A) (A) (A) (A) (A) (A) (A)
                 (A) (A) (A) (A) (A) (A) (A) (A) (A) (A) (A) (A)
                 (A) (A) (A) (A) (A) (A) (A) (A) (A) (A) (A) (A)
                 (A) (A) (A) (A) (A) (A) (A) (A) (A) (A) (A) (A)
                 (A) (A) (A) (A) (A) (A) (A) (A) (A) (A) (A) (A)
 The electronic state is 1-A.
 Alpha  occ. eigenvalues --  -19.18564 -19.17784 -19.17692 -19.17161 -19.16289
 Alpha  occ. eigenvalues --  -10.29417 -10.25055 -10.24895 -10.24602 -10.24357
 Alpha  occ. eigenvalues --  -10.23845  -1.11274  -1.05374  -1.03977  -1.02349
 Alpha  occ. eigenvalues --   -1.01250  -0.79306  -0.77484  -0.68233  -0.65908
 Alpha  occ. eigenvalues --   -0.62643  -0.58021  -0.55316  -0.53577  -0.53058
 Alpha  occ. eigenvalues --   -0.49918  -0.47634  -0.46954  -0.46143  -0.44115
 Alpha  occ. eigenvalues --   -0.42970  -0.42155  -0.40676  -0.37873  -0.37761
 Alpha  occ. eigenvalues --   -0.36634  -0.35388  -0.34161  -0.32219  -0.30044
 Alpha  occ. eigenvalues --   -0.29510  -0.27797  -0.26099
 Alpha virt. eigenvalues --    0.00373   0.01322   0.02327   0.03069   0.04222
 Alpha virt. eigenvalues --    0.04645   0.05248   0.05559   0.05857   0.08491
 Alpha virt. eigenvalues --    0.09078   0.09595   0.09933   0.10958   0.11865
 Alpha virt. eigenvalues --    0.12295   0.12580   0.13402   0.13404   0.14848
 Alpha virt. eigenvalues --    0.15164   0.15768   0.16644   0.17121   0.17826
 Alpha virt. eigenvalues --    0.18108   0.19065   0.19697   0.19920   0.20195
 Alpha virt. eigenvalues --    0.20922   0.21883   0.22453   0.23184   0.24005
 Alpha virt. eigenvalues --    0.24498   0.25082   0.25714   0.26064   0.26536
 Alpha virt. eigenvalues --    0.27449   0.27882   0.28697   0.29548   0.29930
 Alpha virt. eigenvalues --    0.30709   0.31602   0.32187   0.32775   0.32974
 Alpha virt. eigenvalues --    0.33792   0.34436   0.34796   0.35729   0.36415
 Alpha virt. eigenvalues --    0.37047   0.37713   0.38520   0.39141   0.39910
 Alpha virt. eigenvalues --    0.41479   0.42691   0.44651   0.45842   0.46366
 Alpha virt. eigenvalues --    0.48693   0.64034   0.64825   0.66596   0.69662
 Alpha virt. eigenvalues --    0.70525   0.72041   0.72887   0.73964   0.76383
 Alpha virt. eigenvalues --    0.77679   0.79297   0.81914   0.84375   0.84875
 Alpha virt. eigenvalues --    0.88895   0.90132   0.95273   0.96671   0.98565
 Alpha virt. eigenvalues --    1.02069   1.02738   1.04372   1.05163   1.06659
 Alpha virt. eigenvalues --    1.06854   1.08236   1.10414   1.12124   1.13354
 Alpha virt. eigenvalues --    1.16232   1.19911   1.22350   1.23387   1.26286
 Alpha virt. eigenvalues --    1.27713   1.28751   1.29745   1.31235   1.31884
 Alpha virt. eigenvalues --    1.33832   1.35148   1.36859   1.37570   1.40587
 Alpha virt. eigenvalues --    1.42953   1.44837   1.45662   1.47678   1.49998
 Alpha virt. eigenvalues --    1.50047   1.54451   1.56006   1.57982   1.59763
 Alpha virt. eigenvalues --    1.62124   1.64623   1.66603   1.67894   1.69616
 Alpha virt. eigenvalues --    1.70239   1.72183   1.74035   1.75384   1.77823
 Alpha virt. eigenvalues --    1.79356   1.84032   1.85286   1.88646   1.88909
 Alpha virt. eigenvalues --    1.90453   1.92425   1.94016   1.97323   1.99269
 Alpha virt. eigenvalues --    2.00055   2.02502   2.03595   2.04818   2.07502
 Alpha virt. eigenvalues --    2.09436   2.11310   2.12357   2.14002   2.16120
 Alpha virt. eigenvalues --    2.18815   2.20493   2.22471   2.27842   2.29601
 Alpha virt. eigenvalues --    2.32099   2.34551   2.37051   2.38232   2.42618
 Alpha virt. eigenvalues --    2.45302   2.47101   2.49794   2.51198   2.52020
 Alpha virt. eigenvalues --    2.53880   2.57291   2.58909   2.60659   2.62126
 Alpha virt. eigenvalues --    2.64491   2.65033   2.68192   2.69235   2.70526
 Alpha virt. eigenvalues --    2.72428   2.73255   2.76593   2.78520   2.80875
 Alpha virt. eigenvalues --    2.81474   2.85768   2.86321   2.87396   2.90657
 Alpha virt. eigenvalues --    2.91927   2.93176   2.97223   3.01107   3.03024
 Alpha virt. eigenvalues --    3.04406   3.05906   3.10188   3.14853   3.21016
 Alpha virt. eigenvalues --    3.34608   3.40937   3.43397   3.46467   3.48076
 Alpha virt. eigenvalues --    3.49696   3.52427   3.53404   3.56779   3.58931
 Alpha virt. eigenvalues --    4.27856   4.32007   4.42469   4.45861   4.47172
 Alpha virt. eigenvalues --    4.56858   4.60686   4.80387   4.86476   4.91630
 Alpha virt. eigenvalues --    4.98322
          Condensed to atoms (all electrons):
              1          2          3          4          5          6
     1  C    5.652870  -0.484443  -0.385285  -0.355590   0.282192   0.250645
     2  C   -0.484443   7.378662  -0.328152   0.584897  -0.236537  -0.943546
     3  C   -0.385285  -0.328152   6.179836   0.245294  -0.707254   0.179139
     4  C   -0.355590   0.584897   0.245294   6.597847  -0.747903  -0.650591
     5  C    0.282192  -0.236537  -0.707254  -0.747903   7.049577  -0.009334
     6  C    0.250645  -0.943546   0.179139  -0.650591  -0.009334   6.678602
     7  O   -0.005821   0.035526   0.291416  -0.042565  -0.144138  -0.026279
     8  O    0.170146  -0.138916   0.337494   0.096664  -0.215263  -0.029206
     9  O    0.083240  -0.221138  -0.035473  -0.198290   0.092819   0.288379
    10  O    0.036954  -0.023560  -0.027538   0.178577  -0.081153  -0.009736
    11  O    0.000506   0.003115  -0.114649  -0.074689   0.254406   0.010445
    12  H    0.488350  -0.184559   0.025825  -0.028779   0.002360   0.042575
    13  H    0.401225  -0.013751  -0.025187  -0.006528   0.011177   0.016416
    14  H   -0.013702   0.317907   0.019184   0.014004  -0.012678   0.006058
    15  H    0.001690   0.037116   0.368874   0.020963  -0.049336  -0.012186
    16  H    0.000239   0.002117   0.001773   0.302948  -0.018637   0.024800
    17  H    0.009436  -0.022774  -0.024804  -0.044168   0.388846   0.027869
    18  H   -0.005946   0.032456   0.001664  -0.033670  -0.001710   0.013913
    19  H    0.003717   0.001971  -0.019505   0.008135   0.049798  -0.071786
    20  H    0.000582  -0.007815  -0.012661  -0.013390  -0.000921   0.014803
    21  H    0.007078  -0.022719  -0.021769  -0.010223   0.025135   0.330313
              7          8          9         10         11         12
     1  C   -0.005821   0.170146   0.083240   0.036954   0.000506   0.488350
     2  C    0.035526  -0.138916  -0.221138  -0.023560   0.003115  -0.184559
     3  C    0.291416   0.337494  -0.035473  -0.027538  -0.114649   0.025825
     4  C   -0.042565   0.096664  -0.198290   0.178577  -0.074689  -0.028779
     5  C   -0.144138  -0.215263   0.092819  -0.081153   0.254406   0.002360
     6  C   -0.026279  -0.029206   0.288379  -0.009736   0.010445   0.042575
     7  O    8.374312  -0.040971   0.012112   0.008437  -0.002630   0.011054
     8  O   -0.040971   8.383521  -0.002577  -0.013405   0.006100  -0.039999
     9  O    0.012112  -0.002577   8.409888  -0.033495  -0.000467   0.008294
    10  O    0.008437  -0.013405  -0.033495   8.376697   0.004810   0.000565
    11  O   -0.002630   0.006100  -0.000467   0.004810   8.274530   0.000067
    12  H    0.011054  -0.039999   0.008294   0.000565   0.000067   0.533152
    13  H   -0.001045  -0.054035  -0.002425   0.000524   0.000048  -0.038978
    14  H   -0.030495   0.006689   0.004159  -0.001285   0.000049   0.002926
    15  H   -0.043740  -0.047567  -0.000048  -0.000498   0.006426  -0.000258
    16  H   -0.001017  -0.000489  -0.002135  -0.042441  -0.001659  -0.000013
    17  H    0.009039  -0.001612  -0.000987  -0.002188  -0.054221   0.000057
    18  H   -0.000558  -0.000061   0.250282   0.002466   0.000035   0.000047
    19  H    0.000079  -0.000431   0.037476   0.243115  -0.000410  -0.000334
    20  H    0.023727   0.000200  -0.000285  -0.000453   0.255079  -0.000001
    21  H    0.001522  -0.001368  -0.028666   0.004745   0.000426   0.000154
             13         14         15         16         17         18
     1  C    0.401225  -0.013702   0.001690   0.000239   0.009436  -0.005946
     2  C   -0.013751   0.317907   0.037116   0.002117  -0.022774   0.032456
     3  C   -0.025187   0.019184   0.368874   0.001773  -0.024804   0.001664
     4  C   -0.006528   0.014004   0.020963   0.302948  -0.044168  -0.033670
     5  C    0.011177  -0.012678  -0.049336  -0.018637   0.388846  -0.001710
     6  C    0.016416   0.006058  -0.012186   0.024800   0.027869   0.013913
     7  O   -0.001045  -0.030495  -0.043740  -0.001017   0.009039  -0.000558
     8  O   -0.054035   0.006689  -0.047567  -0.000489  -0.001612  -0.000061
     9  O   -0.002425   0.004159  -0.000048  -0.002135  -0.000987   0.250282
    10  O    0.000524  -0.001285  -0.000498  -0.042441  -0.002188   0.002466
    11  O    0.000048   0.000049   0.006426  -0.001659  -0.054221   0.000035
    12  H   -0.038978   0.002926  -0.000258  -0.000013   0.000057   0.000047
    13  H    0.552463  -0.004531   0.000261   0.000004  -0.000006  -0.000002
    14  H   -0.004531   0.516310  -0.000039  -0.000144   0.000021  -0.000215
    15  H    0.000261  -0.000039   0.549213  -0.000164  -0.002443  -0.000001
    16  H    0.000004  -0.000144  -0.000164   0.591497  -0.003894   0.001655
    17  H   -0.000006   0.000021  -0.002443  -0.003894   0.539795   0.000000
    18  H   -0.000002  -0.000215  -0.000001   0.001655   0.000000   0.319309
    19  H    0.000024   0.000000   0.000011  -0.002045   0.000101  -0.002291
    20  H    0.000000   0.000036  -0.001253  -0.000841   0.006121  -0.000001
    21  H   -0.000127  -0.007159  -0.000032  -0.003784  -0.000187  -0.008512
             19         20         21
     1  C    0.003717   0.000582   0.007078
     2  C    0.001971  -0.007815  -0.022719
     3  C   -0.019505  -0.012661  -0.021769
     4  C    0.008135  -0.013390  -0.010223
     5  C    0.049798  -0.000921   0.025135
     6  C   -0.071786   0.014803   0.330313
     7  O    0.000079   0.023727   0.001522
     8  O   -0.000431   0.000200  -0.001368
     9  O    0.037476  -0.000285  -0.028666
    10  O    0.243115  -0.000453   0.004745
    11  O   -0.000410   0.255079   0.000426
    12  H   -0.000334  -0.000001   0.000154
    13  H    0.000024   0.000000  -0.000127
    14  H    0.000000   0.000036  -0.007159
    15  H    0.000011  -0.001253  -0.000032
    16  H   -0.002045  -0.000841  -0.003784
    17  H    0.000101   0.006121  -0.000187
    18  H   -0.002291  -0.000001  -0.008512
    19  H    0.338848   0.000005   0.000906
    20  H    0.000005   0.339040  -0.000534
    21  H    0.000906  -0.000534   0.553397
 Mulliken atomic charges:
              1
     1  C   -0.138082
     2  C    0.234143
     3  C    0.051779
     4  C    0.157059
     5  C    0.068554
     6  C   -0.131293
     7  O   -0.427964
     8  O   -0.414915
     9  O   -0.660664
    10  O   -0.621135
    11  O   -0.567315
    12  H    0.177496
    13  H    0.164473
    14  H    0.182904
    15  H    0.173011
    16  H    0.152229
    17  H    0.175998
    18  H    0.431142
    19  H    0.412615
    20  H    0.398560
    21  H    0.181405
 Sum of Mulliken atomic charges =   0.00000
 Mulliken charges with hydrogens summed into heavy atoms:
              1
     1  C    0.203887
     2  C    0.417047
     3  C    0.224790
     4  C    0.309288
     5  C    0.244552
     6  C    0.050112
     7  O   -0.427964
     8  O   -0.414915
     9  O   -0.229521
    10  O   -0.208520
    11  O   -0.168755
 Sum of Mulliken charges with hydrogens summed into heavy atoms =   0.00000
 Electronic spatial extent (au):  <R**2>=           1377.8473
 Charge=              0.0000 electrons
 Dipole moment (field-independent basis, Debye):
    X=             -3.9529    Y=             -0.6522    Z=             -4.2747  Tot=              5.8587
 Quadrupole moment (field-independent basis, Debye-Ang):
   XX=            -63.2010   YY=            -65.7894   ZZ=            -68.0018
   XY=              6.0347   XZ=              3.6810   YZ=              2.9815
 Traceless Quadrupole moment (field-independent basis, Debye-Ang):
   XX=              2.4630   YY=             -0.1254   ZZ=             -2.3377
   XY=              6.0347   XZ=              3.6810   YZ=              2.9815
 Octapole moment (field-independent basis, Debye-Ang**2):
  XXX=            -20.0415  YYY=              7.0747  ZZZ=            -23.1433  XYY=            -28.4865
  XXY=             -5.1331  XXZ=              0.5986  XZZ=             -5.0075  YZZ=             -7.1065
  YYZ=             -8.1326  XYZ=             -8.4859
 Hexadecapole moment (field-independent basis, Debye-Ang**3):
 XXXX=           -718.5642 YYYY=           -610.4481 ZZZZ=           -373.3513 XXXY=             97.8938
 XXXZ=              9.0194 YYYX=             23.4282 YYYZ=              0.2999 ZZZX=              0.3397
 ZZZY=             16.1774 XXYY=           -222.3420 XXZZ=           -157.2669 YYZZ=           -170.7795
 XXYZ=             11.6707 YYXZ=             15.1064 ZZXY=            -12.1321
 N-N= 7.329665109800D+02 E-N=-2.895910728513D+03  KE= 6.053479431905D+02

 Test job not archived.
 1\1\GINC-COMPUTE-10-4\SP\RB3LYP\6-31+G(d,p)\C6H10O5\ASAROTTI.IQUIR\15-
 Apr-2019\0\\# B3LYP/6-31+G** test scrf=(pcm,solvent=water,smd,dovacuum
 )\\comment\\0,1\C,0,-0.591455,1.772526,0.489072\C,0,-0.532449,1.031034
 ,-0.854614\C,0,1.397717,0.663239,0.191557\C,0,-0.276495,-1.25718,0.263
 676\C,0,1.210586,-0.850532,0.388651\C,0,-1.023306,-0.4231,-0.816047\O,
 0,0.88916,0.993722,-1.099678\O,0,0.660886,1.437566,1.117636\O,0,-2.427
 367,-0.417318,-0.539949\O,0,-0.904996,-1.084807,1.527772\O,0,2.018185,
 -1.532204,-0.567812\H,0,-1.421314,1.45323,1.121786\H,0,-0.636175,2.856
 854,0.341476\H,0,-1.010222,1.578059,-1.669224\H,0,2.45491,0.940551,0.2
 275\H,0,-0.301079,-2.318786,-0.027808\H,0,1.569454,-1.15331,1.376865\H
 ,0,-2.820387,-1.211479,-0.937079\H,0,-1.853284,-0.98312,1.31864\H,0,1.
 852959,-1.100327,-1.424345\H,0,-0.829393,-0.85326,-1.805328\\Version=E
 M64L-G09RevC.01\State=1-A\HF=-610.8066381\RMSD=6.034e-09\Dipole=-1.555
 2073,-0.2566033,-1.6818161\Quadrupole=1.8312128,-0.093205,-1.7380078,4
 .486676,2.7367277,2.2166697\PG=C01 [X(C6H10O5)]\\@


 KNOWING HOW CONTENTED, FREE, AND JOYFUL IS LIFE IN
 THE REALMS OF SCIENCE, ONE FERVENTLY WISHES THAT
 MANY WOULD ENTER HER PORTALS.
   --  DMITRI IVANOVICH MENDELEEV
 "FIRST PRINCIPLES OF CHEMISTRY", LONGMANS, GREEN,
 AND CO.  LONDON, 1891
 Job cpu time:  0 days  0 hours  5 minutes  1.8 seconds.
 File lengths (MBytes):  RWF=     56 Int=      0 D2E=      0 Chk=      4 Scr=      1
 Normal termination of Gaussian 09 at Mon Apr 15 17:57:24 2019.
