 Entering Gaussian System, Link 0=g09
 Input=/home/asarotti.iquir/SCF3/02_RSS_Levo05_OPTB_energy_b3lyp_smd.gjc
 Output=/home/asarotti.iquir/SCF3/02_RSS_Levo05_OPTB_energy_b3lyp_smd.log
 Initial command:
 /share/apps/Gaussian09/EM64T.SSE4.2-enabled/g09/l1.exe /tmp/Gau-3750.inp -scrdir=/tmp/
 Entering Link 1 = /share/apps/Gaussian09/EM64T.SSE4.2-enabled/g09/l1.exe PID=      3751.
  
 Copyright (c) 1988,1990,1992,1993,1995,1998,2003,2009,2011,
            Gaussian, Inc.  All Rights Reserved.
  
 This is part of the Gaussian(R) 09 program.  It is based on
 the Gaussian(R) 03 system (copyright 2003, Gaussian, Inc.),
 the Gaussian(R) 98 system (copyright 1998, Gaussian, Inc.),
 the Gaussian(R) 94 system (copyright 1995, Gaussian, Inc.),
 the Gaussian 92(TM) system (copyright 1992, Gaussian, Inc.),
 the Gaussian 90(TM) system (copyright 1990, Gaussian, Inc.),
 the Gaussian 88(TM) system (copyright 1988, Gaussian, Inc.),
 the Gaussian 86(TM) system (copyright 1986, Carnegie Mellon
 University), and the Gaussian 82(TM) system (copyright 1983,
 Carnegie Mellon University). Gaussian is a federally registered
 trademark of Gaussian, Inc.
  
 This software contains proprietary and confidential information,
 including trade secrets, belonging to Gaussian, Inc.
  
 This software is provided under written license and may be
 used, copied, transmitted, or stored only in accord with that
 written license.
  
 The following legend is applicable only to US Government
 contracts under FAR:
  
                    RESTRICTED RIGHTS LEGEND
  
 Use, reproduction and disclosure by the US Government is
 subject to restrictions as set forth in subparagraphs (a)
 and (c) of the Commercial Computer Software - Restricted
 Rights clause in FAR 52.227-19.
  
 Gaussian, Inc.
 340 Quinnipiac St., Bldg. 40, Wallingford CT 06492
  
  
 ---------------------------------------------------------------
 Warning -- This program may not be used in any manner that
 competes with the business of Gaussian, Inc. or will provide
 assistance to any competitor of Gaussian, Inc.  The licensee
 of this program is prohibited from giving any competitor of
 Gaussian, Inc. access to this program.  By using this program,
 the user acknowledges that Gaussian, Inc. is engaged in the
 business of creating and licensing software in the field of
 computational chemistry and represents and warrants to the
 licensee that it is not a competitor of Gaussian, Inc. and that
 it will not use this program in any manner prohibited above.
 ---------------------------------------------------------------
  

 Cite this work as:
 Gaussian 09, Revision C.01,
 M. J. Frisch, G. W. Trucks, H. B. Schlegel, G. E. Scuseria, 
 M. A. Robb, J. R. Cheeseman, G. Scalmani, V. Barone, B. Mennucci, 
 G. A. Petersson, H. Nakatsuji, M. Caricato, X. Li, H. P. Hratchian, 
 A. F. Izmaylov, J. Bloino, G. Zheng, J. L. Sonnenberg, M. Hada, 
 M. Ehara, K. Toyota, R. Fukuda, J. Hasegawa, M. Ishida, T. Nakajima, 
 Y. Honda, O. Kitao, H. Nakai, T. Vreven, J. A. Montgomery, Jr., 
 J. E. Peralta, F. Ogliaro, M. Bearpark, J. J. Heyd, E. Brothers, 
 K. N. Kudin, V. N. Staroverov, T. Keith, R. Kobayashi, J. Normand, 
 K. Raghavachari, A. Rendell, J. C. Burant, S. S. Iyengar, J. Tomasi, 
 M. Cossi, N. Rega, J. M. Millam, M. Klene, J. E. Knox, J. B. Cross, 
 V. Bakken, C. Adamo, J. Jaramillo, R. Gomperts, R. E. Stratmann, 
 O. Yazyev, A. J. Austin, R. Cammi, C. Pomelli, J. W. Ochterski, 
 R. L. Martin, K. Morokuma, V. G. Zakrzewski, G. A. Voth, 
 P. Salvador, J. J. Dannenberg, S. Dapprich, A. D. Daniels, 
 O. Farkas, J. B. Foresman, J. V. Ortiz, J. Cioslowski, 
 and D. J. Fox, Gaussian, Inc., Wallingford CT, 2010.
 
 ******************************************
 Gaussian 09:  EM64L-G09RevC.01 23-Sep-2011
                15-Apr-2019 
 ******************************************
 %nprocshared=4
 Will use up to    4 processors via shared memory.
 -----------------------------------------------------------
 # B3LYP/6-31+G** test scrf=(pcm,solvent=water,smd,dovacuum)
 -----------------------------------------------------------
 1/38=1/1;
 2/12=2,17=6,18=5,40=1/2;
 3/5=1,6=6,7=111,11=2,16=1,25=1,30=1,70=32101,72=1,74=-5/1,2,3;
 4//1;
 5/5=2,38=5,53=1/2;
 6/7=2,8=2,9=2,10=2,28=1/1;
 99/5=1,9=1/99;
 -------
 comment
 -------
 Charge =  0 Multiplicity = 1
 Symbolic Z-Matrix:
 6                    -2.12377   0.30245  -0.50205 
 6                    -1.31697   0.60629   0.76654 
 6                    -0.62173  -1.36135   0.0172 
 6                     1.18191   0.32715   0.43009 
 6                     0.80738  -0.91939  -0.37399 
 6                     0.02709   1.35427   0.51409 
 8                    -1.02216  -0.733     1.22373 
 8                    -1.55682  -0.93671  -0.96946 
 8                    -0.03591   2.11644  -0.6839 
 8                     2.32369   0.91638  -0.20598 
 8                     1.70138  -1.99244  -0.09494 
 1                    -2.02219   1.06869  -1.27046 
 1                    -3.18126   0.14793  -0.26028 
 1                    -1.90965   1.09381   1.54078 
 1                    -0.67655  -2.44548   0.14487 
 1                     1.43631  -0.00376   1.44176 
 1                     0.81608  -0.67959  -1.44539 
 1                     0.89551   2.20927  -0.96301 
 1                     2.81625   1.42435   0.45948 
 1                     2.59557  -1.65938  -0.28038 
 1                     0.22512   2.02225   1.36574 
 
                          Input orientation:                          
 ---------------------------------------------------------------------
 Center     Atomic      Atomic             Coordinates (Angstroms)
 Number     Number       Type             X           Y           Z
 ---------------------------------------------------------------------
      1          6           0       -2.123773    0.302453   -0.502051
      2          6           0       -1.316970    0.606290    0.766540
      3          6           0       -0.621731   -1.361346    0.017200
      4          6           0        1.181909    0.327153    0.430091
      5          6           0        0.807382   -0.919394   -0.373990
      6          6           0        0.027085    1.354273    0.514085
      7          8           0       -1.022158   -0.733000    1.223731
      8          8           0       -1.556824   -0.936714   -0.969460
      9          8           0       -0.035906    2.116441   -0.683895
     10          8           0        2.323688    0.916380   -0.205977
     11          8           0        1.701375   -1.992443   -0.094944
     12          1           0       -2.022192    1.068691   -1.270462
     13          1           0       -3.181255    0.147925   -0.260276
     14          1           0       -1.909649    1.093812    1.540776
     15          1           0       -0.676546   -2.445481    0.144873
     16          1           0        1.436308   -0.003757    1.441764
     17          1           0        0.816083   -0.679585   -1.445389
     18          1           0        0.895506    2.209275   -0.963012
     19          1           0        2.816251    1.424352    0.459477
     20          1           0        2.595565   -1.659384   -0.280376
     21          1           0        0.225115    2.022253    1.365743
 ---------------------------------------------------------------------
                    Distance matrix (angstroms):
                    1          2          3          4          5
     1  C    0.000000
     2  C    1.533809   0.000000
     3  C    2.300865   2.217309   0.000000
     4  C    3.434681   2.536831   2.504920   0.000000
     5  C    3.178204   2.853312   1.546194   1.529933   0.000000
     6  C    2.600971   1.558748   2.835920   1.547788   2.562636
     7  O    2.294350   1.445557   1.418054   2.571323   2.436118
     8  O    1.440638   2.334971   1.424152   3.325171   2.438105
     9  O    2.771788   2.454678   3.595793   2.434253   3.165986
    10  O    4.499386   3.781050   3.730059   1.433677   2.386939
    11  O    4.479290   4.075043   2.409913   2.434344   1.424263
    12  H    1.089906   2.204661   3.086170   3.702435   3.572483
    13  H    1.095720   2.177156   2.984301   4.421078   4.130536
    14  H    2.201191   1.090132   3.163513   3.373295   3.886076
    15  H    3.172399   3.179610   1.093002   3.350030   2.190936
    16  H    4.067721   2.899763   2.847447   1.094396   2.128591
    17  H    3.239913   3.331069   2.161313   2.159809   1.097943
    18  H    3.600625   3.233568   4.001519   2.359056   3.184852
    19  H    5.156261   4.224574   4.446959   1.968701   3.197400
    20  H    5.115672   4.640823   3.244745   2.539590   1.937511
    21  H    3.458850   2.177618   3.739580   2.159691   3.466842
                    6          7          8          9         10
     6  C    0.000000
     7  O    2.441560   0.000000
     8  O    3.155677   2.266595   0.000000
     9  O    1.421275   3.568059   3.422937   0.000000
    10  O    2.446349   3.994897   4.367521   2.690025   0.000000
    11  O    3.791394   3.277611   3.534855   4.499771   2.976719
    12  H    2.732344   3.235299   2.080581   2.321028   4.476941
    13  H    3.514023   2.764056   2.078018   3.734666   5.558585
    14  H    2.207458   2.055578   3.247893   3.083155   4.582987
    15  H    3.881951   2.053284   2.071957   4.680642   4.519581
    16  H    2.165812   2.573595   3.955155   3.343812   2.085461
    17  H    2.932343   3.241325   2.433785   3.020516   2.521135
    18  H    1.914941   4.137180   3.988886   0.976756   2.069875
    19  H    2.790581   4.468964   5.171100   3.149776   0.971330
    20  H    4.038612   4.025971   4.270764   4.619992   2.591141
    21  H    1.100334   3.027751   4.169408   2.068337   2.845570
                   11         12         13         14         15
    11  O    0.000000
    12  H    4.961586   0.000000
    13  H    5.333722   1.792125   0.000000
    14  H    5.023947   2.813602   2.399057   0.000000
    15  H    2.432543   4.020366   3.628149   3.999460   0.000000
    16  H    2.527173   4.524106   4.923600   3.522767   3.479669
    17  H    2.081115   3.338094   4.250644   4.414944   2.806290
    18  H    4.365478   3.147764   4.622011   3.922003   5.036418
    19  H    3.636594   5.150700   6.173928   4.859279   5.222472
    20  H    0.972054   5.454021   6.052968   5.585126   3.391975
    21  H    4.520037   3.592944   4.214309   2.334493   4.718492
                   16         17         18         19         20
    16  H    0.000000
    17  H    3.029369   0.000000
    18  H    3.312541   2.929933   0.000000
    19  H    2.215542   3.472137   2.515719   0.000000
    20  H    2.655324   2.341755   4.280504   3.178917   0.000000
    21  H    2.361670   3.943556   2.430535   2.809411   4.677947
                   21
    21  H    0.000000
 Stoichiometry    C6H10O5
 Framework group  C1[X(C6H10O5)]
 Deg. of freedom    57
 Full point group                 C1      NOp   1
 Largest Abelian subgroup         C1      NOp   1
 Largest concise Abelian subgroup C1      NOp   1
                         Standard orientation:                         
 ---------------------------------------------------------------------
 Center     Atomic      Atomic             Coordinates (Angstroms)
 Number     Number       Type             X           Y           Z
 ---------------------------------------------------------------------
      1          6           0       -2.123773    0.302454   -0.502051
      2          6           0       -1.316970    0.606290    0.766540
      3          6           0       -0.621731   -1.361346    0.017200
      4          6           0        1.181909    0.327153    0.430091
      5          6           0        0.807382   -0.919394   -0.373990
      6          6           0        0.027085    1.354273    0.514085
      7          8           0       -1.022158   -0.733000    1.223731
      8          8           0       -1.556824   -0.936714   -0.969460
      9          8           0       -0.035906    2.116441   -0.683895
     10          8           0        2.323688    0.916380   -0.205977
     11          8           0        1.701375   -1.992443   -0.094944
     12          1           0       -2.022192    1.068692   -1.270462
     13          1           0       -3.181255    0.147926   -0.260276
     14          1           0       -1.909649    1.093813    1.540776
     15          1           0       -0.676546   -2.445481    0.144873
     16          1           0        1.436308   -0.003757    1.441764
     17          1           0        0.816083   -0.679585   -1.445389
     18          1           0        0.895506    2.209275   -0.963012
     19          1           0        2.816251    1.424352    0.459477
     20          1           0        2.595565   -1.659384   -0.280376
     21          1           0        0.225115    2.022253    1.365743
 ---------------------------------------------------------------------
 Rotational constants (GHZ):      1.5274064      1.2477904      0.8649567
 Standard basis: 6-31+G(d,p) (6D, 7F)
 There are   259 symmetry adapted basis functions of A   symmetry.
 Integral buffers will be    131072 words long.
 Raffenetti 2 integral format.
 Two-electron integral symmetry is turned on.
   259 basis functions,   422 primitive gaussians,   259 cartesian basis functions
    43 alpha electrons       43 beta electrons
       nuclear repulsion energy       724.7919173032 Hartrees.
 NAtoms=   21 NActive=   21 NUniq=   21 SFac= 1.00D+00 NAtFMM=   60 NAOKFM=F Big=F
 ------------------------------------------------------------------------------
 Polarizable Continuum Model (PCM)
 =================================
 Model                : C-PCM.
 Atomic radii         : SMD-Coulomb.
 Polarization charges : Total charges.
 Charge compensation  : None.
 Solution method      : Matrix inversion.
 Cavity type          : VdW (van der Waals Surface) (Alpha=1.000).
 Cavity algorithm     : GePol (No added spheres)
                        Default sphere list used, NSphG=   21.
                        Lebedev-Laikov grids with approx.  5.0 points / Ang**2.
                        Smoothing algorithm: Karplus/York (Gamma=1.0000).
                        Polarization charges: spherical gaussians, with
                                              point-specific exponents (IZeta= 3).
                        Self-potential: point-specific (ISelfS= 7).
                        Self-field    : sphere-specific E.n sum rule (ISelfD= 2).
 Solvent              : Water, Eps=  78.355300 Eps(inf)=   1.777849
 ------------------------------------------------------------------------------
 ------------------------------------------------------------------------------
 Atomic radii for non-electrostatic terms: SMD-CDS.
 ------------------------------------------------------------------------------
 Nuclear repulsion after PCM non-electrostatic terms =      724.7972006465 Hartrees.
 One-electron integrals computed using PRISM.
 NBasis=   259 RedAO= T  NBF=   259
 NBsUse=   259 1.00D-06 NBFU=   259
 Harris functional with IExCor=  402 diagonalized for initial guess.
 ExpMin= 4.38D-02 ExpMax= 5.48D+03 ExpMxC= 8.25D+02 IAcc=2 IRadAn=         4 AccDes= 0.00D+00
 HarFok:  IExCor=  402 AccDes= 0.00D+00 IRadAn=         4 IDoV= 1
 ScaDFX=  1.000000  1.000000  1.000000  1.000000
 FoFCou: FMM=F IPFlag=           0 FMFlag=      100000 FMFlg1=           0
         NFxFlg=           0 DoJE=T BraDBF=F KetDBF=T FulRan=T
         Omega=  0.000000  0.000000  1.000000  0.000000  0.000000 ICntrl=     500 IOpCl=  0
         NMat0=    1 NMatS0=    1 NMatT0=    0 NMatD0=    1 NMtDS0=    0 NMtDT0=    0
         I1Cent=           4 NGrid=           0.
 Petite list used in FoFCou.
 Initial guess orbital symmetries:
       Occupied  (A) (A) (A) (A) (A) (A) (A) (A) (A) (A) (A) (A)
                 (A) (A) (A) (A) (A) (A) (A) (A) (A) (A) (A) (A)
                 (A) (A) (A) (A) (A) (A) (A) (A) (A) (A) (A) (A)
                 (A) (A) (A) (A) (A) (A) (A)
       Virtual   (A) (A) (A) (A) (A) (A) (A) (A) (A) (A) (A) (A)
                 (A) (A) (A) (A) (A) (A) (A) (A) (A) (A) (A) (A)
                 (A) (A) (A) (A) (A) (A) (A) (A) (A) (A) (A) (A)
                 (A) (A) (A) (A) (A) (A) (A) (A) (A) (A) (A) (A)
                 (A) (A) (A) (A) (A) (A) (A) (A) (A) (A) (A) (A)
                 (A) (A) (A) (A) (A) (A) (A) (A) (A) (A) (A) (A)
                 (A) (A) (A) (A) (A) (A) (A) (A) (A) (A) (A) (A)
                 (A) (A) (A) (A) (A) (A) (A) (A) (A) (A) (A) (A)
                 (A) (A) (A) (A) (A) (A) (A) (A) (A) (A) (A) (A)
                 (A) (A) (A) (A) (A) (A) (A) (A) (A) (A) (A) (A)
                 (A) (A) (A) (A) (A) (A) (A) (A) (A) (A) (A) (A)
                 (A) (A) (A) (A) (A) (A) (A) (A) (A) (A) (A) (A)
                 (A) (A) (A) (A) (A) (A) (A) (A) (A) (A) (A) (A)
                 (A) (A) (A) (A) (A) (A) (A) (A) (A) (A) (A) (A)
                 (A) (A) (A) (A) (A) (A) (A) (A) (A) (A) (A) (A)
                 (A) (A) (A) (A) (A) (A) (A) (A) (A) (A) (A) (A)
                 (A) (A) (A) (A) (A) (A) (A) (A) (A) (A) (A) (A)
                 (A) (A) (A) (A) (A) (A) (A) (A) (A) (A) (A) (A)
 The electronic state of the initial guess is 1-A.
 Requested convergence on RMS density matrix=1.00D-08 within 128 cycles.
 Requested convergence on MAX density matrix=1.00D-06.
 Requested convergence on             energy=1.00D-06.
 No special actions if energy rises.
 Error on total polarization charges =  0.05721
 SCF Done:  E(RB3LYP) =  -610.801168766     A.U. after   12 cycles
             Convg  =    0.4187D-08             -V/T =  2.0090
 SMD-CDS (non-electrostatic) energy       (kcal/mol) =       3.32
 (included in total energy above)

 **********************************************************************

            Population analysis using the SCF density.

 **********************************************************************

 Orbital symmetries:
       Occupied  (A) (A) (A) (A) (A) (A) (A) (A) (A) (A) (A) (A)
                 (A) (A) (A) (A) (A) (A) (A) (A) (A) (A) (A) (A)
                 (A) (A) (A) (A) (A) (A) (A) (A) (A) (A) (A) (A)
                 (A) (A) (A) (A) (A) (A) (A)
       Virtual   (A) (A) (A) (A) (A) (A) (A) (A) (A) (A) (A) (A)
                 (A) (A) (A) (A) (A) (A) (A) (A) (A) (A) (A) (A)
                 (A) (A) (A) (A) (A) (A) (A) (A) (A) (A) (A) (A)
                 (A) (A) (A) (A) (A) (A) (A) (A) (A) (A) (A) (A)
                 (A) (A) (A) (A) (A) (A) (A) (A) (A) (A) (A) (A)
                 (A) (A) (A) (A) (A) (A) (A) (A) (A) (A) (A) (A)
                 (A) (A) (A) (A) (A) (A) (A) (A) (A) (A) (A) (A)
                 (A) (A) (A) (A) (A) (A) (A) (A) (A) (A) (A) (A)
                 (A) (A) (A) (A) (A) (A) (A) (A) (A) (A) (A) (A)
                 (A) (A) (A) (A) (A) (A) (A) (A) (A) (A) (A) (A)
                 (A) (A) (A) (A) (A) (A) (A) (A) (A) (A) (A) (A)
                 (A) (A) (A) (A) (A) (A) (A) (A) (A) (A) (A) (A)
                 (A) (A) (A) (A) (A) (A) (A) (A) (A) (A) (A) (A)
                 (A) (A) (A) (A) (A) (A) (A) (A) (A) (A) (A) (A)
                 (A) (A) (A) (A) (A) (A) (A) (A) (A) (A) (A) (A)
                 (A) (A) (A) (A) (A) (A) (A) (A) (A) (A) (A) (A)
                 (A) (A) (A) (A) (A) (A) (A) (A) (A) (A) (A) (A)
                 (A) (A) (A) (A) (A) (A) (A) (A) (A) (A) (A) (A)
 The electronic state is 1-A.
 Alpha  occ. eigenvalues --  -19.18377 -19.17712 -19.17367 -19.17049 -19.16492
 Alpha  occ. eigenvalues --  -10.29462 -10.25129 -10.24640 -10.24619 -10.24371
 Alpha  occ. eigenvalues --  -10.23590  -1.11055  -1.05551  -1.03723  -1.02164
 Alpha  occ. eigenvalues --   -1.01135  -0.78916  -0.78068  -0.67892  -0.66217
 Alpha  occ. eigenvalues --   -0.61795  -0.57418  -0.55351  -0.54295  -0.51749
 Alpha  occ. eigenvalues --   -0.50273  -0.48791  -0.47475  -0.45560  -0.44183
 Alpha  occ. eigenvalues --   -0.42749  -0.41831  -0.40277  -0.38729  -0.36402
 Alpha  occ. eigenvalues --   -0.36056  -0.35192  -0.34742  -0.31892  -0.30410
 Alpha  occ. eigenvalues --   -0.28312  -0.27958  -0.26635
 Alpha virt. eigenvalues --    0.00386   0.01401   0.02328   0.02603   0.04053
 Alpha virt. eigenvalues --    0.04739   0.05071   0.05634   0.06036   0.08317
 Alpha virt. eigenvalues --    0.08472   0.09319   0.09869   0.10616   0.11629
 Alpha virt. eigenvalues --    0.12516   0.12688   0.13435   0.14004   0.14716
 Alpha virt. eigenvalues --    0.14978   0.15560   0.16164   0.16661   0.16914
 Alpha virt. eigenvalues --    0.17925   0.18691   0.19623   0.19903   0.20664
 Alpha virt. eigenvalues --    0.21509   0.22051   0.22767   0.23645   0.23822
 Alpha virt. eigenvalues --    0.24327   0.25124   0.25937   0.26729   0.27140
 Alpha virt. eigenvalues --    0.27465   0.28030   0.29178   0.29262   0.29649
 Alpha virt. eigenvalues --    0.30484   0.31491   0.32133   0.32571   0.33280
 Alpha virt. eigenvalues --    0.34360   0.34957   0.35060   0.35619   0.36052
 Alpha virt. eigenvalues --    0.37046   0.37697   0.38542   0.39212   0.39982
 Alpha virt. eigenvalues --    0.41498   0.41925   0.43759   0.44401   0.44961
 Alpha virt. eigenvalues --    0.46984   0.64248   0.65800   0.67775   0.68832
 Alpha virt. eigenvalues --    0.71461   0.73899   0.75418   0.75638   0.76758
 Alpha virt. eigenvalues --    0.78701   0.80284   0.80984   0.82316   0.83206
 Alpha virt. eigenvalues --    0.85203   0.90482   0.92372   0.94413   0.97414
 Alpha virt. eigenvalues --    0.98462   1.01895   1.03509   1.03973   1.06320
 Alpha virt. eigenvalues --    1.07613   1.08127   1.08976   1.09596   1.15363
 Alpha virt. eigenvalues --    1.18044   1.20637   1.22597   1.24928   1.26839
 Alpha virt. eigenvalues --    1.27772   1.28810   1.30813   1.31785   1.32444
 Alpha virt. eigenvalues --    1.33981   1.35495   1.36083   1.37120   1.41545
 Alpha virt. eigenvalues --    1.42186   1.43467   1.46124   1.48121   1.48654
 Alpha virt. eigenvalues --    1.52899   1.53632   1.56934   1.58700   1.60439
 Alpha virt. eigenvalues --    1.61540   1.62397   1.64895   1.67148   1.69139
 Alpha virt. eigenvalues --    1.70372   1.74850   1.76299   1.77287   1.77891
 Alpha virt. eigenvalues --    1.81072   1.82136   1.83254   1.84662   1.85337
 Alpha virt. eigenvalues --    1.89211   1.90751   1.94568   1.96351   1.96629
 Alpha virt. eigenvalues --    1.99055   2.00356   2.02884   2.05658   2.06407
 Alpha virt. eigenvalues --    2.09085   2.10210   2.13202   2.14323   2.16203
 Alpha virt. eigenvalues --    2.18017   2.21519   2.24036   2.28997   2.31268
 Alpha virt. eigenvalues --    2.33702   2.34693   2.36380   2.40259   2.43136
 Alpha virt. eigenvalues --    2.45013   2.46561   2.48223   2.50474   2.51966
 Alpha virt. eigenvalues --    2.55728   2.58421   2.60213   2.60726   2.62831
 Alpha virt. eigenvalues --    2.65080   2.66467   2.66600   2.68520   2.68705
 Alpha virt. eigenvalues --    2.69690   2.74477   2.76519   2.79534   2.80193
 Alpha virt. eigenvalues --    2.82379   2.85494   2.87124   2.87978   2.91832
 Alpha virt. eigenvalues --    2.93599   2.94862   2.97323   2.99490   3.02859
 Alpha virt. eigenvalues --    3.05223   3.08131   3.10694   3.11516   3.25563
 Alpha virt. eigenvalues --    3.34805   3.39070   3.40705   3.42913   3.47912
 Alpha virt. eigenvalues --    3.51623   3.52768   3.53782   3.55093   3.58900
 Alpha virt. eigenvalues --    4.27665   4.31951   4.37778   4.43511   4.51090
 Alpha virt. eigenvalues --    4.56121   4.59735   4.73642   4.79736   4.95298
 Alpha virt. eigenvalues --    5.01025
          Condensed to atoms (all electrons):
              1          2          3          4          5          6
     1  C    5.462734   0.085495  -0.277034   0.126687   0.018671  -0.353370
     2  C    0.085495   6.368704  -0.449515  -0.165181   0.083883  -0.033869
     3  C   -0.277034  -0.449515   5.999446  -0.243098  -0.186794   0.269840
     4  C    0.126687  -0.165181  -0.243098   5.886558   0.229290  -0.211818
     5  C    0.018671   0.083883  -0.186794   0.229290   5.855806  -0.320664
     6  C   -0.353370  -0.033869   0.269840  -0.211818  -0.320664   6.178814
     7  O   -0.022952   0.061768   0.274630   0.014047  -0.118147  -0.143618
     8  O    0.150264  -0.152448   0.332867  -0.010911  -0.128511   0.060478
     9  O    0.041698  -0.200236  -0.028811   0.001650   0.052530   0.140547
    10  O    0.000370   0.025125   0.036699   0.239839  -0.127843  -0.090818
    11  O    0.005921   0.000821  -0.164993  -0.121518   0.313005   0.035185
    12  H    0.475050  -0.138992   0.026737   0.002613  -0.004185   0.000916
    13  H    0.386613  -0.008002  -0.030594  -0.002708   0.010059   0.025326
    14  H   -0.023128   0.335672   0.017393   0.001972   0.003543   0.002058
    15  H    0.012773   0.014651   0.372726   0.002515  -0.033091   0.002937
    16  H    0.009455  -0.034111   0.000054   0.401572  -0.093770   0.011996
    17  H    0.013464  -0.016713  -0.070900  -0.056664   0.395792   0.028894
    18  H   -0.004942   0.037173  -0.001789  -0.055753  -0.011989   0.023732
    19  H    0.000759   0.007633  -0.007815   0.028007   0.029615  -0.057653
    20  H   -0.001681  -0.002276   0.033702  -0.027867  -0.015024   0.012530
    21  H    0.017511  -0.065822  -0.014697   0.018519   0.025824   0.333288
              7          8          9         10         11         12
     1  C   -0.022952   0.150264   0.041698   0.000370   0.005921   0.475050
     2  C    0.061768  -0.152448  -0.200236   0.025125   0.000821  -0.138992
     3  C    0.274630   0.332867  -0.028811   0.036699  -0.164993   0.026737
     4  C    0.014047  -0.010911   0.001650   0.239839  -0.121518   0.002613
     5  C   -0.118147  -0.128511   0.052530  -0.127843   0.313005  -0.004185
     6  C   -0.143618   0.060478   0.140547  -0.090818   0.035185   0.000916
     7  O    8.427013  -0.070494   0.020508  -0.001855   0.013699   0.010924
     8  O   -0.070494   8.405628  -0.000602  -0.002227   0.004973  -0.044995
     9  O    0.020508  -0.000602   8.423665  -0.035507  -0.001922  -0.001263
    10  O   -0.001855  -0.002227  -0.035507   8.373175  -0.011061   0.000024
    11  O    0.013699   0.004973  -0.001922  -0.011061   8.327150   0.000010
    12  H    0.010924  -0.044995  -0.001263   0.000024   0.000010   0.533202
    13  H   -0.004186  -0.051289  -0.001329  -0.000004   0.000028  -0.040410
    14  H   -0.036684   0.007575   0.005279  -0.000213   0.000074   0.002563
    15  H   -0.041632  -0.044999   0.000346  -0.000531   0.000930  -0.000270
    16  H    0.009727  -0.000011   0.005666  -0.042025   0.004020  -0.000004
    17  H    0.010926  -0.004769   0.003295   0.002503  -0.040478  -0.000003
    18  H   -0.000798  -0.001026   0.232463   0.032791   0.000056   0.000367
    19  H    0.000276  -0.000010   0.003428   0.253188  -0.000479  -0.000001
    20  H   -0.001575  -0.000289  -0.000260   0.013088   0.243371   0.000000
    21  H    0.007022  -0.001143  -0.044011  -0.005685  -0.000893   0.000040
             13         14         15         16         17         18
     1  C    0.386613  -0.023128   0.012773   0.009455   0.013464  -0.004942
     2  C   -0.008002   0.335672   0.014651  -0.034111  -0.016713   0.037173
     3  C   -0.030594   0.017393   0.372726   0.000054  -0.070900  -0.001789
     4  C   -0.002708   0.001972   0.002515   0.401572  -0.056664  -0.055753
     5  C    0.010059   0.003543  -0.033091  -0.093770   0.395792  -0.011989
     6  C    0.025326   0.002058   0.002937   0.011996   0.028894   0.023732
     7  O   -0.004186  -0.036684  -0.041632   0.009727   0.010926  -0.000798
     8  O   -0.051289   0.007575  -0.044999  -0.000011  -0.004769  -0.001026
     9  O   -0.001329   0.005279   0.000346   0.005666   0.003295   0.232463
    10  O   -0.000004  -0.000213  -0.000531  -0.042025   0.002503   0.032791
    11  O    0.000028   0.000074   0.000930   0.004020  -0.040478   0.000056
    12  H   -0.040410   0.002563  -0.000270  -0.000004  -0.000003   0.000367
    13  H    0.558107  -0.004667   0.000364   0.000001  -0.000047  -0.000008
    14  H   -0.004667   0.515010  -0.000084   0.000003   0.000025  -0.000237
    15  H    0.000364  -0.000084   0.538185  -0.000052   0.000787  -0.000007
    16  H    0.000001   0.000003  -0.000052   0.550654   0.004519   0.000886
    17  H   -0.000047   0.000025   0.000787   0.004519   0.558671   0.000075
    18  H   -0.000008  -0.000237  -0.000007   0.000886   0.000075   0.340137
    19  H    0.000000  -0.000001   0.000005  -0.007026   0.000146  -0.002142
    20  H    0.000000  -0.000001   0.000050  -0.001245  -0.005024   0.000016
    21  H   -0.000085  -0.007788   0.000005  -0.005463  -0.000151  -0.002015
             19         20         21
     1  C    0.000759  -0.001681   0.017511
     2  C    0.007633  -0.002276  -0.065822
     3  C   -0.007815   0.033702  -0.014697
     4  C    0.028007  -0.027867   0.018519
     5  C    0.029615  -0.015024   0.025824
     6  C   -0.057653   0.012530   0.333288
     7  O    0.000276  -0.001575   0.007022
     8  O   -0.000010  -0.000289  -0.001143
     9  O    0.003428  -0.000260  -0.044011
    10  O    0.253188   0.013088  -0.005685
    11  O   -0.000479   0.243371  -0.000893
    12  H   -0.000001   0.000000   0.000040
    13  H    0.000000   0.000000  -0.000085
    14  H   -0.000001  -0.000001  -0.007788
    15  H    0.000005   0.000050   0.000005
    16  H   -0.007026  -0.001245  -0.005463
    17  H    0.000146  -0.005024  -0.000151
    18  H   -0.002142   0.000016  -0.002015
    19  H    0.324204  -0.000749   0.002116
    20  H   -0.000749   0.346712   0.000001
    21  H    0.002116   0.000001   0.589435
 Mulliken atomic charges:
              1
     1  C   -0.124357
     2  C    0.246242
     3  C    0.111945
     4  C   -0.057749
     5  C    0.022000
     6  C    0.085269
     7  O   -0.408597
     8  O   -0.448060
     9  O   -0.617133
    10  O   -0.659030
    11  O   -0.607899
    12  H    0.177677
    13  H    0.162833
    14  H    0.181637
    15  H    0.174392
    16  H    0.185153
    17  H    0.175653
    18  H    0.413009
    19  H    0.426501
    20  H    0.406522
    21  H    0.153992
 Sum of Mulliken atomic charges =   0.00000
 Mulliken charges with hydrogens summed into heavy atoms:
              1
     1  C    0.216153
     2  C    0.427879
     3  C    0.286338
     4  C    0.127404
     5  C    0.197652
     6  C    0.239261
     7  O   -0.408597
     8  O   -0.448060
     9  O   -0.204123
    10  O   -0.232529
    11  O   -0.201376
 Sum of Mulliken charges with hydrogens summed into heavy atoms =   0.00000
 Electronic spatial extent (au):  <R**2>=           1447.5026
 Charge=              0.0000 electrons
 Dipole moment (field-independent basis, Debye):
    X=              2.8389    Y=              3.9758    Z=              2.6162  Tot=              5.5417
 Quadrupole moment (field-independent basis, Debye-Ang):
   XX=            -54.9490   YY=            -70.6775   ZZ=            -67.7055
   XY=              2.7251   XZ=              0.8252   YZ=              5.4110
 Traceless Quadrupole moment (field-independent basis, Debye-Ang):
   XX=              9.4950   YY=             -6.2335   ZZ=             -3.2615
   XY=              2.7251   XZ=              0.8252   YZ=              5.4110
 Octapole moment (field-independent basis, Debye-Ang**2):
  XXX=             27.5222  YYY=              8.0470  ZZZ=             -0.5850  XYY=              9.7747
  XXY=             19.4564  XXZ=             12.0079  XZZ=             10.8746  YZZ=             11.3071
  YYZ=              7.4664  XYZ=              5.0360
 Hexadecapole moment (field-independent basis, Debye-Ang**3):
 XXXX=           -726.6161 YYYY=           -725.8147 ZZZZ=           -260.9174 XXXY=             -7.3285
 XXXZ=             19.4744 YYYX=             67.0938 YYYZ=              6.5560 ZZZX=             -3.0274
 ZZZY=              3.0350 XXYY=           -234.1288 XXZZ=           -185.8969 YYZZ=           -156.1734
 XXYZ=             16.2229 YYXZ=             -8.3131 ZZXY=             -5.2841
 N-N= 7.247972006465D+02 E-N=-2.879814901073D+03  KE= 6.053489066421D+02

 Test job not archived.
 1\1\GINC-COMPUTE-8-7\SP\RB3LYP\6-31+G(d,p)\C6H10O5\ASAROTTI.IQUIR\15-A
 pr-2019\0\\# B3LYP/6-31+G** test scrf=(pcm,solvent=water,smd,dovacuum)
 \\comment\\0,1\C,0,-2.123773,0.302453,-0.502051\C,0,-1.31697,0.60629,0
 .76654\C,0,-0.621731,-1.361346,0.0172\C,0,1.181909,0.327153,0.430091\C
 ,0,0.807382,-0.919394,-0.37399\C,0,0.027085,1.354273,0.514085\O,0,-1.0
 22158,-0.733,1.223731\O,0,-1.556824,-0.936714,-0.96946\O,0,-0.035906,2
 .116441,-0.683895\O,0,2.323688,0.91638,-0.205977\O,0,1.701375,-1.99244
 3,-0.094944\H,0,-2.022192,1.068691,-1.270462\H,0,-3.181255,0.147925,-0
 .260276\H,0,-1.909649,1.093812,1.540776\H,0,-0.676546,-2.445481,0.1448
 73\H,0,1.436308,-0.003757,1.441764\H,0,0.816083,-0.679585,-1.445389\H,
 0,0.895506,2.209275,-0.963012\H,0,2.816251,1.424352,0.459477\H,0,2.595
 565,-1.659384,-0.280376\H,0,0.225115,2.022253,1.365743\\Version=EM64L-
 G09RevC.01\State=1-A\HF=-610.8011688\RMSD=4.187e-09\Dipole=1.1169121,1
 .5641841,1.0293013\Quadrupole=7.0592826,-4.6344526,-2.4248301,2.026027
 3,0.6135402,4.0229174\PG=C01 [X(C6H10O5)]\\@


 ALL OUR THINKING ABOUT NATURE MUST NECESSARILY MOVE IN CIRCLES OR SPIRALS;
 FOR WE CAN ONLY UNDERSTAND NATURE IF WE THINK ABOUT HER, AND WE CAN ONLY
 THINK BECAUSE OUR BRAIN IS BUILT IN ACCORDANCE WITH NATURE'S LAWS.

                                             -- TIMOTHY FERRIS, "GALAXIES"
 Job cpu time:  0 days  0 hours  9 minutes 15.9 seconds.
 File lengths (MBytes):  RWF=     56 Int=      0 D2E=      0 Chk=      4 Scr=      1
 Normal termination of Gaussian 09 at Mon Apr 15 17:44:48 2019.
