 Entering Gaussian System, Link 0=g09
 Input=/home/mmarcarino.iquir/NMR/03_RRS_Levo03_OPTB_nmr.gjc
 Output=/home/mmarcarino.iquir/NMR/03_RRS_Levo03_OPTB_nmr.log
 Initial command:
 /share/apps/Gaussian09/EM64T.SSE4.2-enabled/g09/l1.exe /tmp/Gau-26643.inp -scrdir=/tmp/
 Entering Link 1 = /share/apps/Gaussian09/EM64T.SSE4.2-enabled/g09/l1.exe PID=     26644.
  
 Copyright (c) 1988,1990,1992,1993,1995,1998,2003,2009,2011,
            Gaussian, Inc.  All Rights Reserved.
  
 This is part of the Gaussian(R) 09 program.  It is based on
 the Gaussian(R) 03 system (copyright 2003, Gaussian, Inc.),
 the Gaussian(R) 98 system (copyright 1998, Gaussian, Inc.),
 the Gaussian(R) 94 system (copyright 1995, Gaussian, Inc.),
 the Gaussian 92(TM) system (copyright 1992, Gaussian, Inc.),
 the Gaussian 90(TM) system (copyright 1990, Gaussian, Inc.),
 the Gaussian 88(TM) system (copyright 1988, Gaussian, Inc.),
 the Gaussian 86(TM) system (copyright 1986, Carnegie Mellon
 University), and the Gaussian 82(TM) system (copyright 1983,
 Carnegie Mellon University). Gaussian is a federally registered
 trademark of Gaussian, Inc.
  
 This software contains proprietary and confidential information,
 including trade secrets, belonging to Gaussian, Inc.
  
 This software is provided under written license and may be
 used, copied, transmitted, or stored only in accord with that
 written license.
  
 The following legend is applicable only to US Government
 contracts under FAR:
  
                    RESTRICTED RIGHTS LEGEND
  
 Use, reproduction and disclosure by the US Government is
 subject to restrictions as set forth in subparagraphs (a)
 and (c) of the Commercial Computer Software - Restricted
 Rights clause in FAR 52.227-19.
  
 Gaussian, Inc.
 340 Quinnipiac St., Bldg. 40, Wallingford CT 06492
  
  
 ---------------------------------------------------------------
 Warning -- This program may not be used in any manner that
 competes with the business of Gaussian, Inc. or will provide
 assistance to any competitor of Gaussian, Inc.  The licensee
 of this program is prohibited from giving any competitor of
 Gaussian, Inc. access to this program.  By using this program,
 the user acknowledges that Gaussian, Inc. is engaged in the
 business of creating and licensing software in the field of
 computational chemistry and represents and warrants to the
 licensee that it is not a competitor of Gaussian, Inc. and that
 it will not use this program in any manner prohibited above.
 ---------------------------------------------------------------
  

 Cite this work as:
 Gaussian 09, Revision C.01,
 M. J. Frisch, G. W. Trucks, H. B. Schlegel, G. E. Scuseria, 
 M. A. Robb, J. R. Cheeseman, G. Scalmani, V. Barone, B. Mennucci, 
 G. A. Petersson, H. Nakatsuji, M. Caricato, X. Li, H. P. Hratchian, 
 A. F. Izmaylov, J. Bloino, G. Zheng, J. L. Sonnenberg, M. Hada, 
 M. Ehara, K. Toyota, R. Fukuda, J. Hasegawa, M. Ishida, T. Nakajima, 
 Y. Honda, O. Kitao, H. Nakai, T. Vreven, J. A. Montgomery, Jr., 
 J. E. Peralta, F. Ogliaro, M. Bearpark, J. J. Heyd, E. Brothers, 
 K. N. Kudin, V. N. Staroverov, T. Keith, R. Kobayashi, J. Normand, 
 K. Raghavachari, A. Rendell, J. C. Burant, S. S. Iyengar, J. Tomasi, 
 M. Cossi, N. Rega, J. M. Millam, M. Klene, J. E. Knox, J. B. Cross, 
 V. Bakken, C. Adamo, J. Jaramillo, R. Gomperts, R. E. Stratmann, 
 O. Yazyev, A. J. Austin, R. Cammi, C. Pomelli, J. W. Ochterski, 
 R. L. Martin, K. Morokuma, V. G. Zakrzewski, G. A. Voth, 
 P. Salvador, J. J. Dannenberg, S. Dapprich, A. D. Daniels, 
 O. Farkas, J. B. Foresman, J. V. Ortiz, J. Cioslowski, 
 and D. J. Fox, Gaussian, Inc., Wallingford CT, 2010.
 
 ******************************************
 Gaussian 09:  EM64L-G09RevC.01 23-Sep-2011
                12-Apr-2019 
 ******************************************
 %nprocshared=4
 Will use up to    4 processors via shared memory.
 ------------------------------------------------
 # mpw1pw91/6-31+g** nmr scrf=(pcm,solvent=water)
 ------------------------------------------------
 1/38=1/1;
 2/12=2,17=6,18=5,40=1/2;
 3/5=1,6=6,7=111,11=2,16=1,25=1,30=1,70=2201,72=1,74=-7/1,2,8,3;
 4//1;
 5/5=2,38=5,53=1/2;
 8/6=1,10=90,11=11/1;
 10/13=100,45=16/2;
 6/7=2,8=2,9=2,10=2,28=1/1;
 99/9=1/99;
 -------
 comment
 -------
 Charge =  0 Multiplicity = 1
 Symbolic Z-Matrix:
 6                    -1.87814   0.75927  -0.60507 
 6                    -1.08121   0.80585   0.70556 
 6                    -0.98442  -1.28582  -0.02632 
 6                     1.00749   0.15389  -0.54163 
 6                     0.51207  -1.30181  -0.37511 
 6                     0.4168    1.08997   0.51868 
 8                    -1.20941  -0.55081   1.1599 
 8                    -1.6931   -0.59809  -1.06024 
 8                     0.58147   2.45483   0.1565 
 8                     2.43379   0.21597  -0.39851 
 8                     1.21849  -1.95315   0.6681 
 1                    -1.50726   1.46034  -1.35821 
 1                    -2.94447   0.94024  -0.43306 
 1                    -1.51255   1.47107   1.45565 
 1                    -1.39276  -2.29122   0.10404 
 1                     0.7147    0.52442  -1.52986 
 1                     0.64343  -1.83877  -1.32836 
 1                     0.90995   0.8793    1.47861 
 1                     1.52765   2.57721  -0.02973 
 1                     2.8369   -0.02198  -1.24963 
 1                     2.11893  -1.57877   0.62786 
 
                          Input orientation:                          
 ---------------------------------------------------------------------
 Center     Atomic      Atomic             Coordinates (Angstroms)
 Number     Number       Type             X           Y           Z
 ---------------------------------------------------------------------
      1          6           0       -1.878141    0.759273   -0.605074
      2          6           0       -1.081207    0.805852    0.705562
      3          6           0       -0.984416   -1.285817   -0.026316
      4          6           0        1.007492    0.153890   -0.541626
      5          6           0        0.512071   -1.301812   -0.375109
      6          6           0        0.416797    1.089971    0.518683
      7          8           0       -1.209410   -0.550808    1.159900
      8          8           0       -1.693096   -0.598085   -1.060242
      9          8           0        0.581466    2.454829    0.156504
     10          8           0        2.433791    0.215971   -0.398512
     11          8           0        1.218487   -1.953154    0.668096
     12          1           0       -1.507257    1.460342   -1.358214
     13          1           0       -2.944469    0.940241   -0.433062
     14          1           0       -1.512546    1.471067    1.455652
     15          1           0       -1.392761   -2.291224    0.104035
     16          1           0        0.714696    0.524416   -1.529859
     17          1           0        0.643425   -1.838773   -1.328359
     18          1           0        0.909948    0.879302    1.478611
     19          1           0        1.527646    2.577214   -0.029728
     20          1           0        2.836900   -0.021981   -1.249628
     21          1           0        2.118930   -1.578772    0.627860
 ---------------------------------------------------------------------
                    Distance matrix (angstroms):
                    1          2          3          4          5
     1  C    0.000000
     2  C    1.534614   0.000000
     3  C    2.305667   2.218128   0.000000
     4  C    2.949134   2.518570   2.511175   0.000000
     5  C    3.164501   2.854581   1.536680   1.546686   0.000000
     6  C    2.576612   1.536120   2.811546   1.532783   2.555106
     7  O    2.297531   1.436449   1.413495   2.882090   2.425646
     8  O    1.443551   2.337415   1.429757   2.850895   2.414001
     9  O    3.082950   2.405218   4.059291   2.441967   3.794704
    10  O    4.350931   3.731240   3.752071   1.434805   2.448922
    11  O    4.308982   3.591951   2.404231   2.438766   1.418290
    12  H    1.093742   2.206592   3.096563   2.949169   3.560011
    13  H    1.095168   2.187755   2.993758   4.030897   4.120416
    14  H    2.210634   1.091421   3.174202   3.474862   3.890966
    15  H    3.169221   3.170297   1.092969   3.486642   2.199295
    16  H    2.762823   2.881246   2.902510   1.095273   2.170164
    17  H    3.692056   3.755693   2.156604   2.173062   1.101938
    18  H    3.482756   2.137217   3.246715   2.148743   2.889955
    19  H    3.903244   3.237976   4.607980   2.530830   4.024615
    20  H    4.822595   4.456415   4.206689   1.969500   2.794205
    21  H    4.791989   3.991660   3.185047   2.367511   1.914327
                    6          7          8          9         10
     6  C    0.000000
     7  O    2.397470   0.000000
     8  O    3.129566   2.272712   0.000000
     9  O    1.421663   3.639766   3.996797   0.000000
    10  O    2.381887   4.036027   4.258142   2.958316   0.000000
    11  O    3.150499   2.846600   3.647010   4.483061   2.705498
    12  H    2.713282   3.236408   2.088168   2.765165   4.242799
    13  H    3.496619   2.787684   2.079840   3.882497   5.426918
    14  H    2.178419   2.065754   3.262470   2.653386   4.537264
    15  H    3.857319   2.043897   2.076647   5.140559   4.602291
    16  H    2.145954   3.477513   2.697779   2.566723   2.080955
    17  H    3.469937   3.359060   2.659046   4.543531   2.879583
    18  H    1.099564   2.576523   3.924829   2.082823   2.507129
    19  H    1.935622   4.323333   4.638713   0.972068   2.555889
    20  H    3.196914   4.738999   4.570408   3.633012   0.971348
    21  H    3.167233   3.523865   4.282870   4.342339   2.091334
                   11         12         13         14         15
    11  O    0.000000
    12  H    4.815347   0.000000
    13  H    5.187917   1.786614   0.000000
    14  H    4.450177   2.813891   2.428872   0.000000
    15  H    2.692782   4.028092   3.624726   3.999506   0.000000
    16  H    3.350099   2.417125   3.842572   3.843180   3.877991
    17  H    2.080772   3.938335   4.625739   4.832594   2.530320
    18  H    2.962252   3.772011   4.302876   2.493830   4.152609
    19  H    4.594211   3.496128   4.779348   3.559871   5.678764
    20  H    3.166442   4.591380   5.917506   5.335299   4.987173
    21  H    0.976001   5.131270   5.754041   4.813977   3.621319
                   16         17         18         19         20
    16  H    0.000000
    17  H    2.372835   0.000000
    18  H    3.035615   3.916382   0.000000
    19  H    2.669318   4.687135   2.353623   0.000000
    20  H    2.209260   2.849257   3.459587   3.155648   0.000000
    21  H    3.324308   2.464043   2.868369   4.249030   2.542448
                   21
    21  H    0.000000
 Stoichiometry    C6H10O5
 Framework group  C1[X(C6H10O5)]
 Deg. of freedom    57
 Full point group                 C1      NOp   1
 Largest Abelian subgroup         C1      NOp   1
 Largest concise Abelian subgroup C1      NOp   1
                         Standard orientation:                         
 ---------------------------------------------------------------------
 Center     Atomic      Atomic             Coordinates (Angstroms)
 Number     Number       Type             X           Y           Z
 ---------------------------------------------------------------------
      1          6           0       -1.878141    0.759272   -0.605074
      2          6           0       -1.081207    0.805852    0.705562
      3          6           0       -0.984415   -1.285817   -0.026316
      4          6           0        1.007492    0.153890   -0.541626
      5          6           0        0.512072   -1.301812   -0.375109
      6          6           0        0.416797    1.089971    0.518683
      7          8           0       -1.209410   -0.550809    1.159900
      8          8           0       -1.693096   -0.598086   -1.060242
      9          8           0        0.581465    2.454829    0.156504
     10          8           0        2.433791    0.215972   -0.398512
     11          8           0        1.218488   -1.953153    0.668096
     12          1           0       -1.507258    1.460341   -1.358214
     13          1           0       -2.944469    0.940240   -0.433062
     14          1           0       -1.512547    1.471066    1.455652
     15          1           0       -1.392760   -2.291225    0.104035
     16          1           0        0.714696    0.524416   -1.529859
     17          1           0        0.643426   -1.838773   -1.328359
     18          1           0        0.909948    0.879302    1.478611
     19          1           0        1.527645    2.577215   -0.029728
     20          1           0        2.836900   -0.021980   -1.249628
     21          1           0        2.118931   -1.578771    0.627860
 ---------------------------------------------------------------------
 Rotational constants (GHZ):      1.4737874      1.2903426      0.8821286
 Standard basis: 6-31+G(d,p) (6D, 7F)
 There are   259 symmetry adapted basis functions of A   symmetry.
 Integral buffers will be    131072 words long.
 Raffenetti 2 integral format.
 Two-electron integral symmetry is turned on.
   259 basis functions,   422 primitive gaussians,   259 cartesian basis functions
    43 alpha electrons       43 beta electrons
       nuclear repulsion energy       727.0221008579 Hartrees.
 NAtoms=   21 NActive=   21 NUniq=   21 SFac= 1.00D+00 NAtFMM=   60 NAOKFM=F Big=F
 ------------------------------------------------------------------------------
 Polarizable Continuum Model (PCM)
 =================================
 Model                : PCM.
 Atomic radii         : UFF (Universal Force Field).
 Polarization charges : Total charges.
 Charge compensation  : None.
 Solution method      : Matrix inversion.
 Cavity type          : Scaled VdW (van der Waals Surface) (Alpha=1.100).
 Cavity algorithm     : GePol (No added spheres)
                        Default sphere list used, NSphG=   21.
                        Lebedev-Laikov grids with approx.  5.0 points / Ang**2.
                        Smoothing algorithm: Karplus/York (Gamma=1.0000).
                        Polarization charges: spherical gaussians, with
                                              point-specific exponents (IZeta= 3).
                        Self-potential: point-specific (ISelfS= 7).
                        Self-field    : sphere-specific E.n sum rule (ISelfD= 2).
 Solvent              : Water, Eps=  78.355300 Eps(inf)=   1.777849
 ------------------------------------------------------------------------------
 One-electron integrals computed using PRISM.
 NBasis=   259 RedAO= T  NBF=   259
 NBsUse=   259 1.00D-06 NBFU=   259
 Harris functional with IExCor=  908 diagonalized for initial guess.
 ExpMin= 4.38D-02 ExpMax= 5.48D+03 ExpMxC= 8.25D+02 IAcc=2 IRadAn=         4 AccDes= 0.00D+00
 HarFok:  IExCor=  908 AccDes= 0.00D+00 IRadAn=         4 IDoV= 1
 ScaDFX=  1.000000  1.000000  1.000000  1.000000
 FoFCou: FMM=F IPFlag=           0 FMFlag=      100000 FMFlg1=           0
         NFxFlg=           0 DoJE=T BraDBF=F KetDBF=T FulRan=T
         Omega=  0.000000  0.000000  1.000000  0.000000  0.000000 ICntrl=     500 IOpCl=  0
         NMat0=    1 NMatS0=    1 NMatT0=    0 NMatD0=    1 NMtDS0=    0 NMtDT0=    0
         I1Cent=           4 NGrid=           0.
 Petite list used in FoFCou.
 Initial guess orbital symmetries:
       Occupied  (A) (A) (A) (A) (A) (A) (A) (A) (A) (A) (A) (A)
                 (A) (A) (A) (A) (A) (A) (A) (A) (A) (A) (A) (A)
                 (A) (A) (A) (A) (A) (A) (A) (A) (A) (A) (A) (A)
                 (A) (A) (A) (A) (A) (A) (A)
       Virtual   (A) (A) (A) (A) (A) (A) (A) (A) (A) (A) (A) (A)
                 (A) (A) (A) (A) (A) (A) (A) (A) (A) (A) (A) (A)
                 (A) (A) (A) (A) (A) (A) (A) (A) (A) (A) (A) (A)
                 (A) (A) (A) (A) (A) (A) (A) (A) (A) (A) (A) (A)
                 (A) (A) (A) (A) (A) (A) (A) (A) (A) (A) (A) (A)
                 (A) (A) (A) (A) (A) (A) (A) (A) (A) (A) (A) (A)
                 (A) (A) (A) (A) (A) (A) (A) (A) (A) (A) (A) (A)
                 (A) (A) (A) (A) (A) (A) (A) (A) (A) (A) (A) (A)
                 (A) (A) (A) (A) (A) (A) (A) (A) (A) (A) (A) (A)
                 (A) (A) (A) (A) (A) (A) (A) (A) (A) (A) (A) (A)
                 (A) (A) (A) (A) (A) (A) (A) (A) (A) (A) (A) (A)
                 (A) (A) (A) (A) (A) (A) (A) (A) (A) (A) (A) (A)
                 (A) (A) (A) (A) (A) (A) (A) (A) (A) (A) (A) (A)
                 (A) (A) (A) (A) (A) (A) (A) (A) (A) (A) (A) (A)
                 (A) (A) (A) (A) (A) (A) (A) (A) (A) (A) (A) (A)
                 (A) (A) (A) (A) (A) (A) (A) (A) (A) (A) (A) (A)
                 (A) (A) (A) (A) (A) (A) (A) (A) (A) (A) (A) (A)
                 (A) (A) (A) (A) (A) (A) (A) (A) (A) (A) (A) (A)
 The electronic state of the initial guess is 1-A.
 Requested convergence on RMS density matrix=1.00D-08 within 128 cycles.
 Requested convergence on MAX density matrix=1.00D-06.
 Requested convergence on             energy=1.00D-06.
 No special actions if energy rises.
 Error on total polarization charges =  0.01148
 SCF Done:  E(RmPW1PW91) =  -610.651804962     A.U. after   12 cycles
             Convg  =    0.4586D-08             -V/T =  2.0090
 Range of M.O.s used for correlation:     1   259
 NBasis=   259 NAE=    43 NBE=    43 NFC=     0 NFV=     0
 NROrb=    259 NOA=    43 NOB=    43 NVA=   216 NVB=   216

 **** Warning!!: The largest alpha MO coefficient is  0.61933732D+02

 NEqPCM:  Using equilibrium solvation (IEInf=0, Eps=  78.3553, EpsInf=   1.7778)
          Differentiating once with respect to magnetic field using GIAOs.
          Electric field/nuclear overlap derivatives assumed to be zero.
 FoFCou: FMM=F IPFlag=           0 FMFlag=    10101102 FMFlg1=           0
         NFxFlg=    40000000 DoJE=F BraDBF=F KetDBF=T FulRan=T
         Omega=  0.000000  0.000000  1.000000  0.000000  0.000000 ICntrl=    6100 IOpCl=  0
         NMat0=    1 NMatS0=    1 NMatT0=    0 NMatD0=    1 NMtDS0=    0 NMtDT0=    0
         I1Cent=           7 NGrid=        1537.
 Symmetry not used in FoFCou.
          There are     3 degrees of freedom in the 1st order CPHF.  IDoFFX=0.
      3 vectors produced by pass  0 Test12= 3.10D-13 3.33D-08 XBig12= 2.28D+01 7.80D-01.
 AX will form     3 AO Fock derivatives at one time.
      3 vectors produced by pass  1 Test12= 3.10D-13 3.33D-08 XBig12= 5.30D-02 3.91D-02.
      3 vectors produced by pass  2 Test12= 3.10D-13 3.33D-08 XBig12= 1.31D-04 1.89D-03.
      3 vectors produced by pass  3 Test12= 3.10D-13 3.33D-08 XBig12= 6.16D-07 1.29D-04.
      3 vectors produced by pass  4 Test12= 3.10D-13 3.33D-08 XBig12= 1.88D-09 6.22D-06.
      3 vectors produced by pass  5 Test12= 3.10D-13 3.33D-08 XBig12= 5.50D-12 4.30D-07.
 Inverted reduced A of dimension    18 with in-core refinement.
 Calculating GIAO nuclear magnetic shielding tensors.
 SCF GIAO Magnetic shielding tensor (ppm):
      1  C    Isotropic =   131.5436   Anisotropy =    65.4575
   XX=   110.0450   YX=   -12.9245   ZX=     6.3020
   XY=    -7.5930   YY=   164.3755   ZY=    25.4076
   XZ=    -0.0345   YZ=    20.4722   ZZ=   120.2102
   Eigenvalues:   102.8424   116.6064   175.1819
      2  C    Isotropic =   120.1250   Anisotropy =    61.0510
   XX=   102.7208   YX=    13.2379   ZX=     9.6081
   XY=     4.3479   YY=   154.2194   ZY=   -18.7873
   XZ=     1.1673   YZ=   -17.4923   ZZ=   103.4348
   Eigenvalues:    91.7164   107.8329   160.8257
      3  C    Isotropic =    92.6910   Anisotropy =    33.5992
   XX=    85.0010   YX=   -22.9911   ZX=    12.3382
   XY=   -11.8365   YY=    82.3007   ZY=    -2.6122
   XZ=    10.2515   YZ=    12.9993   ZZ=   110.7712
   Eigenvalues:    63.3673    99.6152   115.0904
      4  C    Isotropic =   122.0906   Anisotropy =    34.3888
   XX=   143.2123   YX=    -8.5625   ZX=    -2.8892
   XY=    -4.6064   YY=   120.6604   ZY=     4.0650
   XZ=     6.0524   YZ=     0.1527   ZZ=   102.3991
   Eigenvalues:   102.0212   119.2341   145.0164
      5  C    Isotropic =   124.0500   Anisotropy =    37.1909
   XX=   128.4549   YX=   -16.6368   ZX=    20.7227
   XY=    -6.7261   YY=   116.8868   ZY=    -8.0853
   XZ=     6.8476   YZ=   -11.9659   ZZ=   126.8083
   Eigenvalues:   109.3937   113.9123   148.8439
      6  C    Isotropic =   124.5745   Anisotropy =    37.4544
   XX=   117.1541   YX=    11.6533   ZX=    -2.9153
   XY=    -0.7006   YY=   143.9978   ZY=    -4.6435
   XZ=    -4.6637   YZ=   -20.0578   ZZ=   112.5716
   Eigenvalues:   107.9088   116.2706   149.5441
      7  O    Isotropic =   240.1219   Anisotropy =    55.5976
   XX=   201.9342   YX=   -29.1433   ZX=    14.2206
   XY=   -28.8152   YY=   253.6835   ZY=    10.1210
   XZ=    31.9592   YZ=    -8.5968   ZZ=   264.7480
   Eigenvalues:   183.2815   259.8973   277.1869
      8  O    Isotropic =   264.6672   Anisotropy =   118.7866
   XX=   209.8349   YX=   -41.9162   ZX=    49.5064
   XY=   -38.6158   YY=   259.4942   ZY=     8.1192
   XZ=    48.9997   YZ=    39.1900   ZZ=   324.6724
   Eigenvalues:   168.3238   281.8195   343.8582
      9  O    Isotropic =   302.9445   Anisotropy =    39.9450
   XX=   307.1768   YX=    11.4415   ZX=   -16.4898
   XY=     8.3840   YY=   306.0318   ZY=    -4.8915
   XZ=   -14.1671   YZ=   -23.9372   ZZ=   295.6248
   Eigenvalues:   282.5838   296.6751   329.5745
     10  O    Isotropic =   311.6216   Anisotropy =    91.3674
   XX=   320.5421   YX=    -7.3613   ZX=   -22.9195
   XY=   -33.9504   YY=   279.8691   ZY=    27.4240
   XZ=   -40.3149   YZ=    27.2586   ZZ=   334.4537
   Eigenvalues:   267.1752   295.1565   372.5333
     11  O    Isotropic =   309.8562   Anisotropy =    23.8245
   XX=   323.3601   YX=    11.5576   ZX=    -7.4499
   XY=     4.2669   YY=   297.3327   ZY=    10.0181
   XZ=    10.0398   YZ=    -7.0026   ZZ=   308.8757
   Eigenvalues:   295.0279   308.8016   325.7392
     12  H    Isotropic =    27.4935   Anisotropy =     6.1794
   XX=    26.2063   YX=    -0.0798   ZX=     0.8497
   XY=    -0.1053   YY=    29.7082   ZY=    -3.9209
   XZ=     1.9408   YZ=    -2.0050   ZZ=    26.5661
   Eigenvalues:    24.1235    26.7440    31.6131
     13  H    Isotropic =    27.8058   Anisotropy =    11.5856
   XX=    32.8807   YX=    -4.1940   ZX=     0.9872
   XY=    -5.1183   YY=    27.1911   ZY=     1.5623
   XZ=    -0.7124   YZ=     1.6581   ZZ=    23.3456
   Eigenvalues:    22.3433    25.5446    35.5295
     14  H    Isotropic =    27.0417   Anisotropy =     7.7761
   XX=    25.9775   YX=    -1.6043   ZX=    -2.9566
   XY=    -1.2647   YY=    28.1297   ZY=     4.2684
   XZ=    -2.2649   YZ=     2.4087   ZZ=    27.0179
   Eigenvalues:    23.4385    25.4609    32.2258
     15  H    Isotropic =    25.9972   Anisotropy =     7.8020
   XX=    24.6442   YX=     2.2486   ZX=     0.3955
   XY=     2.3508   YY=    30.3885   ZY=    -0.0403
   XZ=     0.5401   YZ=     0.0338   ZZ=    22.9590
   Eigenvalues:    22.7723    24.0208    31.1985
     16  H    Isotropic =    27.7571   Anisotropy =     4.3959
   XX=    30.5355   YX=    -0.0854   ZX=     1.1504
   XY=     0.6047   YY=    24.3374   ZY=    -0.9775
   XZ=     0.0241   YZ=    -1.7784   ZZ=    28.3983
   Eigenvalues:    23.8872    28.6963    30.6877
     17  H    Isotropic =    27.8150   Anisotropy =     6.6623
   XX=    25.1204   YX=    -1.1923   ZX=     1.1953
   XY=    -1.9991   YY=    27.6702   ZY=     2.2797
   XZ=     1.0760   YZ=     3.1318   ZZ=    30.6546
   Eigenvalues:    23.5857    27.6028    32.2566
     18  H    Isotropic =    27.6118   Anisotropy =     2.9075
   XX=    25.2057   YX=     0.4833   ZX=     1.3139
   XY=     0.6959   YY=    28.5971   ZY=    -1.0842
   XZ=     1.5508   YZ=     0.2979   ZZ=    29.0327
   Eigenvalues:    24.6115    28.6738    29.5502
     19  H    Isotropic =    29.2178   Anisotropy =    18.2022
   XX=    38.6102   YX=     4.5620   ZX=    -3.4297
   XY=     4.9909   YY=    29.4204   ZY=    -1.3484
   XZ=    -4.4776   YZ=    -0.0999   ZZ=    19.6228
   Eigenvalues:    18.8271    27.4737    41.3526
     20  H    Isotropic =    29.9219   Anisotropy =    22.3258
   XX=    32.2003   YX=    -1.9838   ZX=    -9.5523
   XY=    -1.7629   YY=    21.3491   ZY=     4.4202
   XZ=    -9.8005   YZ=     3.0810   ZZ=    36.2164
   Eigenvalues:    20.4272    24.5327    44.8058
     21  H    Isotropic =    28.4660   Anisotropy =    17.1648
   XX=    38.5121   YX=     4.4628   ZX=     1.5873
   XY=     4.1235   YY=    26.7153   ZY=    -5.4945
   XZ=     1.5622   YZ=    -3.8053   ZZ=    20.1707
   Eigenvalues:    17.2016    28.2873    39.9092
 End of Minotr Frequency-dependent properties file   721 does not exist.
 End of Minotr Frequency-dependent properties file   722 does not exist.

 **********************************************************************

            Population analysis using the SCF density.

 **********************************************************************

 Orbital symmetries:
       Occupied  (A) (A) (A) (A) (A) (A) (A) (A) (A) (A) (A) (A)
                 (A) (A) (A) (A) (A) (A) (A) (A) (A) (A) (A) (A)
                 (A) (A) (A) (A) (A) (A) (A) (A) (A) (A) (A) (A)
                 (A) (A) (A) (A) (A) (A) (A)
       Virtual   (A) (A) (A) (A) (A) (A) (A) (A) (A) (A) (A) (A)
                 (A) (A) (A) (A) (A) (A) (A) (A) (A) (A) (A) (A)
                 (A) (A) (A) (A) (A) (A) (A) (A) (A) (A) (A) (A)
                 (A) (A) (A) (A) (A) (A) (A) (A) (A) (A) (A) (A)
                 (A) (A) (A) (A) (A) (A) (A) (A) (A) (A) (A) (A)
                 (A) (A) (A) (A) (A) (A) (A) (A) (A) (A) (A) (A)
                 (A) (A) (A) (A) (A) (A) (A) (A) (A) (A) (A) (A)
                 (A) (A) (A) (A) (A) (A) (A) (A) (A) (A) (A) (A)
                 (A) (A) (A) (A) (A) (A) (A) (A) (A) (A) (A) (A)
                 (A) (A) (A) (A) (A) (A) (A) (A) (A) (A) (A) (A)
                 (A) (A) (A) (A) (A) (A) (A) (A) (A) (A) (A) (A)
                 (A) (A) (A) (A) (A) (A) (A) (A) (A) (A) (A) (A)
                 (A) (A) (A) (A) (A) (A) (A) (A) (A) (A) (A) (A)
                 (A) (A) (A) (A) (A) (A) (A) (A) (A) (A) (A) (A)
                 (A) (A) (A) (A) (A) (A) (A) (A) (A) (A) (A) (A)
                 (A) (A) (A) (A) (A) (A) (A) (A) (A) (A) (A) (A)
                 (A) (A) (A) (A) (A) (A) (A) (A) (A) (A) (A) (A)
                 (A) (A) (A) (A) (A) (A) (A) (A) (A) (A) (A) (A)
 The electronic state is 1-A.
 Alpha  occ. eigenvalues --  -19.27796 -19.27776 -19.27014 -19.26511 -19.25823
 Alpha  occ. eigenvalues --  -10.35987 -10.31914 -10.31768 -10.31429 -10.31126
 Alpha  occ. eigenvalues --  -10.30668  -1.14423  -1.09126  -1.06988  -1.05577
 Alpha  occ. eigenvalues --   -1.04139  -0.82505  -0.81134  -0.70607  -0.68732
 Alpha  occ. eigenvalues --   -0.64662  -0.60450  -0.57689  -0.56437  -0.53636
 Alpha  occ. eigenvalues --   -0.52752  -0.50717  -0.49718  -0.47121  -0.46360
 Alpha  occ. eigenvalues --   -0.45274  -0.44193  -0.42377  -0.40552  -0.38637
 Alpha  occ. eigenvalues --   -0.37635  -0.36522  -0.36307  -0.33530  -0.32033
 Alpha  occ. eigenvalues --   -0.30519  -0.29120  -0.28255
 Alpha virt. eigenvalues --    0.00277   0.01341   0.01900   0.02598   0.04115
 Alpha virt. eigenvalues --    0.04688   0.05168   0.05499   0.05708   0.08380
 Alpha virt. eigenvalues --    0.08829   0.09287   0.10052   0.10486   0.11425
 Alpha virt. eigenvalues --    0.12177   0.12987   0.13251   0.13952   0.14230
 Alpha virt. eigenvalues --    0.14809   0.15614   0.16222   0.16851   0.17833
 Alpha virt. eigenvalues --    0.18180   0.18889   0.19591   0.20125   0.20301
 Alpha virt. eigenvalues --    0.21479   0.22165   0.23059   0.23474   0.24181
 Alpha virt. eigenvalues --    0.24522   0.25111   0.25613   0.26944   0.27926
 Alpha virt. eigenvalues --    0.28125   0.28580   0.29482   0.30174   0.30476
 Alpha virt. eigenvalues --    0.31301   0.31488   0.32359   0.32830   0.33806
 Alpha virt. eigenvalues --    0.34129   0.35366   0.36237   0.36459   0.37681
 Alpha virt. eigenvalues --    0.38459   0.38730   0.39035   0.39506   0.40123
 Alpha virt. eigenvalues --    0.41245   0.41693   0.43917   0.45924   0.46363
 Alpha virt. eigenvalues --    0.48351   0.62715   0.66547   0.67865   0.69241
 Alpha virt. eigenvalues --    0.70674   0.72902   0.75442   0.76334   0.76952
 Alpha virt. eigenvalues --    0.78897   0.81109   0.81625   0.84555   0.84853
 Alpha virt. eigenvalues --    0.88785   0.91378   0.96049   0.97117   1.00231
 Alpha virt. eigenvalues --    1.01570   1.03563   1.05838   1.06637   1.07962
 Alpha virt. eigenvalues --    1.08870   1.10733   1.11560   1.12709   1.13712
 Alpha virt. eigenvalues --    1.18928   1.21415   1.23829   1.26199   1.26298
 Alpha virt. eigenvalues --    1.27262   1.30508   1.30810   1.31683   1.35147
 Alpha virt. eigenvalues --    1.35258   1.36573   1.37236   1.40690   1.42768
 Alpha virt. eigenvalues --    1.43602   1.44415   1.45819   1.48093   1.51202
 Alpha virt. eigenvalues --    1.53983   1.54457   1.57686   1.59391   1.60605
 Alpha virt. eigenvalues --    1.60795   1.63006   1.65168   1.66971   1.67862
 Alpha virt. eigenvalues --    1.69894   1.73911   1.75603   1.77887   1.79602
 Alpha virt. eigenvalues --    1.82203   1.83195   1.85389   1.87096   1.88099
 Alpha virt. eigenvalues --    1.91950   1.92905   1.94638   1.97655   1.99416
 Alpha virt. eigenvalues --    2.02175   2.03488   2.05074   2.06051   2.08093
 Alpha virt. eigenvalues --    2.09532   2.09876   2.12494   2.14767   2.18225
 Alpha virt. eigenvalues --    2.19625   2.21315   2.22922   2.26971   2.31175
 Alpha virt. eigenvalues --    2.32782   2.34514   2.37873   2.38561   2.41029
 Alpha virt. eigenvalues --    2.45205   2.46965   2.48896   2.50408   2.51784
 Alpha virt. eigenvalues --    2.55362   2.56964   2.58937   2.59413   2.64812
 Alpha virt. eigenvalues --    2.65645   2.67547   2.68688   2.69455   2.70363
 Alpha virt. eigenvalues --    2.72972   2.75331   2.76911   2.79781   2.81434
 Alpha virt. eigenvalues --    2.84296   2.87078   2.88720   2.89508   2.91491
 Alpha virt. eigenvalues --    2.92145   2.95250   2.96007   3.01408   3.04244
 Alpha virt. eigenvalues --    3.05466   3.09772   3.12102   3.14128   3.20771
 Alpha virt. eigenvalues --    3.35591   3.40792   3.42792   3.46768   3.48640
 Alpha virt. eigenvalues --    3.52310   3.53914   3.55447   3.57738   3.60287
 Alpha virt. eigenvalues --    4.31422   4.37024   4.39734   4.49665   4.53142
 Alpha virt. eigenvalues --    4.57875   4.62038   4.74260   4.84629   4.90189
 Alpha virt. eigenvalues --    5.01631
          Condensed to atoms (all electrons):
              1          2          3          4          5          6
     1  C    5.709402  -0.477262  -0.368033  -0.195467   0.149717   0.203716
     2  C   -0.477262   7.229664  -0.168855   0.190486  -0.196251  -0.643031
     3  C   -0.368033  -0.168855   6.773676  -0.201454  -0.798593   0.053391
     4  C   -0.195467   0.190486  -0.201454   6.561916  -0.279707  -0.169358
     5  C    0.149717  -0.196251  -0.798593  -0.279707   6.967815  -0.318637
     6  C    0.203716  -0.643031   0.053391  -0.169358  -0.318637   6.404730
     7  O   -0.025388   0.108425   0.341391  -0.051517  -0.144669  -0.054542
     8  O    0.202083  -0.153316   0.359793   0.063870  -0.240588  -0.000519
     9  O    0.051160  -0.197922  -0.028835  -0.174262   0.091276   0.310598
    10  O   -0.007870   0.038403   0.049191   0.203270  -0.095432  -0.129830
    11  O    0.016341  -0.056937  -0.179610  -0.051328   0.253355   0.063283
    12  H    0.489753  -0.166533   0.016005  -0.034337   0.019100   0.017515
    13  H    0.372713  -0.009351  -0.008610   0.006194  -0.002251   0.026641
    14  H    0.012757   0.270190   0.006582   0.004347  -0.003347   0.045923
    15  H   -0.001411   0.040627   0.326262   0.031595  -0.017945  -0.005474
    16  H    0.021022  -0.014139  -0.015220   0.333850   0.014035  -0.043647
    17  H    0.020073  -0.034666  -0.038958   0.006878   0.308697   0.046103
    18  H    0.006583  -0.026792  -0.030433  -0.060666   0.083316   0.318394
    19  H   -0.012565   0.051976   0.002733  -0.027552   0.004411  -0.011239
    20  H    0.002729  -0.010222   0.005105   0.036392  -0.051151   0.025672
    21  H    0.000447  -0.002571   0.035818  -0.058933   0.020342  -0.013792
              7          8          9         10         11         12
     1  C   -0.025388   0.202083   0.051160  -0.007870   0.016341   0.489753
     2  C    0.108425  -0.153316  -0.197922   0.038403  -0.056937  -0.166533
     3  C    0.341391   0.359793  -0.028835   0.049191  -0.179610   0.016005
     4  C   -0.051517   0.063870  -0.174262   0.203270  -0.051328  -0.034337
     5  C   -0.144669  -0.240588   0.091276  -0.095432   0.253355   0.019100
     6  C   -0.054542  -0.000519   0.310598  -0.129830   0.063283   0.017515
     7  O    8.232866  -0.048756   0.011540  -0.002574   0.019090   0.013268
     8  O   -0.048756   8.300622  -0.002610  -0.001451   0.010585  -0.041873
     9  O    0.011540  -0.002610   8.284278  -0.012690  -0.001791   0.010797
    10  O   -0.002574  -0.001451  -0.012690   8.344234  -0.019735  -0.000046
    11  O    0.019090   0.010585  -0.001791  -0.019735   8.276433   0.000003
    12  H    0.013268  -0.041873   0.010797  -0.000046   0.000003   0.522399
    13  H   -0.003626  -0.051452  -0.002400  -0.000003   0.000065  -0.036403
    14  H   -0.029685   0.007121   0.001734  -0.000550   0.000148   0.002424
    15  H   -0.051167  -0.039463  -0.000135  -0.000919   0.004585  -0.000251
    16  H   -0.000846   0.000436   0.003445  -0.034007   0.006985   0.001724
    17  H    0.008549   0.001491  -0.000736  -0.007988  -0.041876   0.000006
    18  H    0.000038  -0.000112  -0.030932   0.003938   0.001359   0.000261
    19  H   -0.000488  -0.000037   0.230907   0.014346  -0.000249  -0.000121
    20  H    0.000104   0.000127   0.000296   0.245036   0.001645   0.000005
    21  H   -0.002052  -0.000603   0.000119   0.031385   0.242725   0.000000
             13         14         15         16         17         18
     1  C    0.372713   0.012757  -0.001411   0.021022   0.020073   0.006583
     2  C   -0.009351   0.270190   0.040627  -0.014139  -0.034666  -0.026792
     3  C   -0.008610   0.006582   0.326262  -0.015220  -0.038958  -0.030433
     4  C    0.006194   0.004347   0.031595   0.333850   0.006878  -0.060666
     5  C   -0.002251  -0.003347  -0.017945   0.014035   0.308697   0.083316
     6  C    0.026641   0.045923  -0.005474  -0.043647   0.046103   0.318394
     7  O   -0.003626  -0.029685  -0.051167  -0.000846   0.008549   0.000038
     8  O   -0.051452   0.007121  -0.039463   0.000436   0.001491  -0.000112
     9  O   -0.002400   0.001734  -0.000135   0.003445  -0.000736  -0.030932
    10  O   -0.000003  -0.000550  -0.000919  -0.034007  -0.007988   0.003938
    11  O    0.000065   0.000148   0.004585   0.006985  -0.041876   0.001359
    12  H   -0.036403   0.002424  -0.000251   0.001724   0.000006   0.000261
    13  H    0.533121  -0.003227   0.000348  -0.000030  -0.000005  -0.000133
    14  H   -0.003227   0.495133  -0.000011  -0.000148   0.000018  -0.006536
    15  H    0.000348  -0.000011   0.532281  -0.000239  -0.003273  -0.000107
    16  H   -0.000030  -0.000148  -0.000239   0.532637  -0.003454   0.004710
    17  H   -0.000005   0.000018  -0.003273  -0.003454   0.565405  -0.000251
    18  H   -0.000133  -0.006536  -0.000107   0.004710  -0.000251   0.561043
    19  H    0.000010  -0.000118  -0.000001  -0.001618  -0.000008  -0.005266
    20  H    0.000000   0.000003   0.000002  -0.007163   0.002235   0.000110
    21  H    0.000000  -0.000001  -0.000218   0.000801  -0.001678   0.000674
             19         20         21
     1  C   -0.012565   0.002729   0.000447
     2  C    0.051976  -0.010222  -0.002571
     3  C    0.002733   0.005105   0.035818
     4  C   -0.027552   0.036392  -0.058933
     5  C    0.004411  -0.051151   0.020342
     6  C   -0.011239   0.025672  -0.013792
     7  O   -0.000488   0.000104  -0.002052
     8  O   -0.000037   0.000127  -0.000603
     9  O    0.230907   0.000296   0.000119
    10  O    0.014346   0.245036   0.031385
    11  O   -0.000249   0.001645   0.242725
    12  H   -0.000121   0.000005   0.000000
    13  H    0.000010   0.000000   0.000000
    14  H   -0.000118   0.000003  -0.000001
    15  H   -0.000001   0.000002  -0.000218
    16  H   -0.001618  -0.007163   0.000801
    17  H   -0.000008   0.002235  -0.001678
    18  H   -0.005266   0.000110   0.000674
    19  H    0.369155  -0.000971   0.000013
    20  H   -0.000971   0.344123  -0.002013
    21  H    0.000013  -0.002013   0.357806
 Mulliken atomic charges:
              1
     1  C   -0.170501
     2  C    0.228077
     3  C   -0.131345
     4  C   -0.134215
     5  C    0.236506
     6  C   -0.125896
     7  O   -0.319964
     8  O   -0.365348
     9  O   -0.543839
    10  O   -0.616707
    11  O   -0.545077
    12  H    0.186304
    13  H    0.178398
    14  H    0.197241
    15  H    0.184913
    16  H    0.200865
    17  H    0.173438
    18  H    0.180803
    19  H    0.386682
    20  H    0.407935
    21  H    0.391730
 Sum of Mulliken atomic charges =   0.00000
 Mulliken charges with hydrogens summed into heavy atoms:
              1
     1  C    0.194201
     2  C    0.425318
     3  C    0.053568
     4  C    0.066650
     5  C    0.409944
     6  C    0.054907
     7  O   -0.319964
     8  O   -0.365348
     9  O   -0.157157
    10  O   -0.208772
    11  O   -0.153347
 Sum of Mulliken charges with hydrogens summed into heavy atoms =   0.00000
 Electronic spatial extent (au):  <R**2>=           1432.0863
 Charge=              0.0000 electrons
 Dipole moment (field-independent basis, Debye):
    X=              2.4875    Y=              1.6240    Z=             -3.1410  Tot=              4.3233
 Quadrupole moment (field-independent basis, Debye-Ang):
   XX=            -57.6941   YY=            -70.0577   ZZ=            -65.4398
   XY=             -1.3030   XZ=             -6.7004   YZ=              2.9869
 Traceless Quadrupole moment (field-independent basis, Debye-Ang):
   XX=              6.7031   YY=             -5.6605   ZZ=             -1.0426
   XY=             -1.3030   XZ=             -6.7004   YZ=              2.9869
 Octapole moment (field-independent basis, Debye-Ang**2):
  XXX=             26.1444  YYY=             -5.7602  ZZZ=             -6.1516  XYY=              0.2237
  XXY=              9.5113  XXZ=            -10.1047  XZZ=             17.8072  YZZ=              8.8268
  YYZ=             -9.0095  XYZ=              2.6743
 Hexadecapole moment (field-independent basis, Debye-Ang**3):
 XXXX=           -729.6865 YYYY=           -751.4255 ZZZZ=           -264.7069 XXXY=            -29.6114
 XXXZ=            -44.6041 YYYX=             54.1864 YYYZ=              4.1393 ZZZX=            -18.8768
 ZZZY=              3.6385 XXYY=           -214.3558 XXZZ=           -161.2252 YYZZ=           -163.6567
 XXYZ=             -4.5817 YYXZ=            -11.1834 ZZXY=            -10.5385
 N-N= 7.270221008579D+02 E-N=-2.884020737793D+03  KE= 6.052132360068D+02
 1\1\GINC-COMPUTE-8-21\SP\RmPW1PW91\6-31+G(d,p)\C6H10O5\MMARCARINO.IQUI
 R\12-Apr-2019\0\\# mpw1pw91/6-31+g** nmr scrf=(pcm,solvent=water)\\com
 ment\\0,1\C,0,-1.878141,0.759273,-0.605074\C,0,-1.081207,0.805852,0.70
 5562\C,0,-0.984416,-1.285817,-0.026316\C,0,1.007492,0.15389,-0.541626\
 C,0,0.512071,-1.301812,-0.375109\C,0,0.416797,1.089971,0.518683\O,0,-1
 .20941,-0.550808,1.1599\O,0,-1.693096,-0.598085,-1.060242\O,0,0.581466
 ,2.454829,0.156504\O,0,2.433791,0.215971,-0.398512\O,0,1.218487,-1.953
 154,0.668096\H,0,-1.507257,1.460342,-1.358214\H,0,-2.944469,0.940241,-
 0.433062\H,0,-1.512546,1.471067,1.455652\H,0,-1.392761,-2.291224,0.104
 035\H,0,0.714696,0.524416,-1.529859\H,0,0.643425,-1.838773,-1.328359\H
 ,0,0.909948,0.879302,1.478611\H,0,1.527646,2.577214,-0.029728\H,0,2.83
 69,-0.021981,-1.249628\H,0,2.11893,-1.578772,0.62786\\Version=EM64L-G0
 9RevC.01\State=1-A\HF=-610.651805\RMSD=4.586e-09\Dipole=0.9786624,0.63
 8913,-1.2357601\Quadrupole=4.9835593,-4.2084378,-0.7751215,-0.9687705,
 -4.981586,2.2207189\PG=C01 [X(C6H10O5)]\\@


 THE NUMBERS ARE MEANINGLESS, BUT THE TRENDS ARE IMPORTANT.
     -- LARRY BURGGRAF
 Job cpu time:  0 days  0 hours 18 minutes 52.4 seconds.
 File lengths (MBytes):  RWF=     83 Int=      0 D2E=      0 Chk=      5 Scr=      1
 Normal termination of Gaussian 09 at Fri Apr 12 11:06:55 2019.
