 Entering Gaussian System, Link 0=g09
 Input=/home/asarotti.iquir/SCF3/03_RRS_Levo11_OPTB_energy_b3lyp_smd.gjc
 Output=/home/asarotti.iquir/SCF3/03_RRS_Levo11_OPTB_energy_b3lyp_smd.log
 Initial command:
 /share/apps/Gaussian09/EM64T.SSE4.2-enabled/g09/l1.exe /tmp/Gau-18721.inp -scrdir=/tmp/
 Entering Link 1 = /share/apps/Gaussian09/EM64T.SSE4.2-enabled/g09/l1.exe PID=     18722.
  
 Copyright (c) 1988,1990,1992,1993,1995,1998,2003,2009,2011,
            Gaussian, Inc.  All Rights Reserved.
  
 This is part of the Gaussian(R) 09 program.  It is based on
 the Gaussian(R) 03 system (copyright 2003, Gaussian, Inc.),
 the Gaussian(R) 98 system (copyright 1998, Gaussian, Inc.),
 the Gaussian(R) 94 system (copyright 1995, Gaussian, Inc.),
 the Gaussian 92(TM) system (copyright 1992, Gaussian, Inc.),
 the Gaussian 90(TM) system (copyright 1990, Gaussian, Inc.),
 the Gaussian 88(TM) system (copyright 1988, Gaussian, Inc.),
 the Gaussian 86(TM) system (copyright 1986, Carnegie Mellon
 University), and the Gaussian 82(TM) system (copyright 1983,
 Carnegie Mellon University). Gaussian is a federally registered
 trademark of Gaussian, Inc.
  
 This software contains proprietary and confidential information,
 including trade secrets, belonging to Gaussian, Inc.
  
 This software is provided under written license and may be
 used, copied, transmitted, or stored only in accord with that
 written license.
  
 The following legend is applicable only to US Government
 contracts under FAR:
  
                    RESTRICTED RIGHTS LEGEND
  
 Use, reproduction and disclosure by the US Government is
 subject to restrictions as set forth in subparagraphs (a)
 and (c) of the Commercial Computer Software - Restricted
 Rights clause in FAR 52.227-19.
  
 Gaussian, Inc.
 340 Quinnipiac St., Bldg. 40, Wallingford CT 06492
  
  
 ---------------------------------------------------------------
 Warning -- This program may not be used in any manner that
 competes with the business of Gaussian, Inc. or will provide
 assistance to any competitor of Gaussian, Inc.  The licensee
 of this program is prohibited from giving any competitor of
 Gaussian, Inc. access to this program.  By using this program,
 the user acknowledges that Gaussian, Inc. is engaged in the
 business of creating and licensing software in the field of
 computational chemistry and represents and warrants to the
 licensee that it is not a competitor of Gaussian, Inc. and that
 it will not use this program in any manner prohibited above.
 ---------------------------------------------------------------
  

 Cite this work as:
 Gaussian 09, Revision C.01,
 M. J. Frisch, G. W. Trucks, H. B. Schlegel, G. E. Scuseria, 
 M. A. Robb, J. R. Cheeseman, G. Scalmani, V. Barone, B. Mennucci, 
 G. A. Petersson, H. Nakatsuji, M. Caricato, X. Li, H. P. Hratchian, 
 A. F. Izmaylov, J. Bloino, G. Zheng, J. L. Sonnenberg, M. Hada, 
 M. Ehara, K. Toyota, R. Fukuda, J. Hasegawa, M. Ishida, T. Nakajima, 
 Y. Honda, O. Kitao, H. Nakai, T. Vreven, J. A. Montgomery, Jr., 
 J. E. Peralta, F. Ogliaro, M. Bearpark, J. J. Heyd, E. Brothers, 
 K. N. Kudin, V. N. Staroverov, T. Keith, R. Kobayashi, J. Normand, 
 K. Raghavachari, A. Rendell, J. C. Burant, S. S. Iyengar, J. Tomasi, 
 M. Cossi, N. Rega, J. M. Millam, M. Klene, J. E. Knox, J. B. Cross, 
 V. Bakken, C. Adamo, J. Jaramillo, R. Gomperts, R. E. Stratmann, 
 O. Yazyev, A. J. Austin, R. Cammi, C. Pomelli, J. W. Ochterski, 
 R. L. Martin, K. Morokuma, V. G. Zakrzewski, G. A. Voth, 
 P. Salvador, J. J. Dannenberg, S. Dapprich, A. D. Daniels, 
 O. Farkas, J. B. Foresman, J. V. Ortiz, J. Cioslowski, 
 and D. J. Fox, Gaussian, Inc., Wallingford CT, 2010.
 
 ******************************************
 Gaussian 09:  EM64L-G09RevC.01 23-Sep-2011
                15-Apr-2019 
 ******************************************
 %nprocshared=4
 Will use up to    4 processors via shared memory.
 -----------------------------------------------------------
 # B3LYP/6-31+G** test scrf=(pcm,solvent=water,smd,dovacuum)
 -----------------------------------------------------------
 1/38=1/1;
 2/12=2,17=6,18=5,40=1/2;
 3/5=1,6=6,7=111,11=2,16=1,25=1,30=1,70=32101,72=1,74=-5/1,2,3;
 4//1;
 5/5=2,38=5,53=1/2;
 6/7=2,8=2,9=2,10=2,28=1/1;
 99/5=1,9=1/99;
 -------
 comment
 -------
 Charge =  0 Multiplicity = 1
 Symbolic Z-Matrix:
 6                    -2.13595  -0.55394  -0.07495 
 6                    -1.24005   0.26256   0.86408 
 6                    -0.0062   -1.41168   0.10094 
 6                     0.98044   0.90058  -0.25352 
 6                     1.01504  -0.57976  -0.7165 
 6                    -0.42958   1.39096   0.16352 
 8                    -0.33196  -0.75962   1.31641 
 8                    -1.23322  -1.52966  -0.62218 
 8                    -1.18145   1.85512  -0.95465 
 8                     1.87603   0.99442   0.86849 
 8                     2.33074  -1.09309  -0.59751 
 1                    -2.5788    0.03311  -0.87959 
 1                    -2.9243   -1.05958   0.49516 
 1                    -1.77642   0.64206   1.7344 
 1                     0.39368  -2.40394   0.32753 
 1                     1.34289   1.53913  -1.06738 
 1                     0.72674  -0.64654  -1.77 
 1                    -0.27372   2.20549   0.88246 
 1                    -0.78327   2.6887   -1.25272 
 1                     2.38186   1.81681   0.78306 
 1                     2.70804  -0.60496   0.16129 
 
                          Input orientation:                          
 ---------------------------------------------------------------------
 Center     Atomic      Atomic             Coordinates (Angstroms)
 Number     Number       Type             X           Y           Z
 ---------------------------------------------------------------------
      1          6           0       -2.135950   -0.553939   -0.074948
      2          6           0       -1.240052    0.262561    0.864079
      3          6           0       -0.006195   -1.411680    0.100942
      4          6           0        0.980437    0.900580   -0.253518
      5          6           0        1.015043   -0.579762   -0.716501
      6          6           0       -0.429578    1.390960    0.163521
      7          8           0       -0.331963   -0.759620    1.316406
      8          8           0       -1.233218   -1.529659   -0.622184
      9          8           0       -1.181454    1.855121   -0.954652
     10          8           0        1.876030    0.994418    0.868485
     11          8           0        2.330737   -1.093085   -0.597512
     12          1           0       -2.578799    0.033112   -0.879592
     13          1           0       -2.924298   -1.059580    0.495159
     14          1           0       -1.776416    0.642056    1.734403
     15          1           0        0.393679   -2.403943    0.327526
     16          1           0        1.342892    1.539125   -1.067382
     17          1           0        0.726738   -0.646540   -1.769995
     18          1           0       -0.273720    2.205493    0.882456
     19          1           0       -0.783267    2.688699   -1.252723
     20          1           0        2.381856    1.816813    0.783064
     21          1           0        2.708039   -0.604958    0.161293
 ---------------------------------------------------------------------
                    Distance matrix (angstroms):
                    1          2          3          4          5
     1  C    0.000000
     2  C    1.533322   0.000000
     3  C    2.302719   2.215370   0.000000
     4  C    3.443745   2.566449   2.538825   0.000000
     5  C    3.215745   2.879791   1.550235   1.551439   0.000000
     6  C    2.598308   1.555935   2.835130   1.550012   2.597136
     7  O    2.287475   1.440166   1.417272   2.635018   2.445299
     8  O    1.437505   2.328321   1.429131   3.307906   2.442515
     9  O    2.736515   2.418153   3.628705   2.465058   3.287852
    10  O    4.402665   3.200875   3.149794   1.438674   2.394060
    11  O    4.529354   4.089567   2.459795   2.432353   1.417290
    12  H    1.090044   2.210267   3.109206   3.716535   3.649372
    13  H    1.096443   2.172750   2.965587   4.432798   4.149308
    14  H    2.198504   1.090489   3.165392   3.408651   3.910500
    15  H    3.159671   3.172887   1.093538   3.406137   2.191739
    16  H    4.179496   3.468682   3.448517   1.096124   2.172622
    17  H    3.328174   3.410729   2.150124   2.181203   1.094271
    18  H    3.463956   2.170051   3.710293   2.136854   3.460523
    19  H    3.705618   3.252022   4.387409   2.703041   3.768858
    20  H    5.173705   3.942142   4.073235   1.969254   3.140135
    21  H    4.850015   4.102916   2.832227   2.328803   1.907195
                    6          7          8          9         10
     6  C    0.000000
     7  O    2.442062   0.000000
     8  O    3.129406   2.272301   0.000000
     9  O    1.425157   3.565980   3.401463   0.000000
    10  O    2.443368   2.855261   4.273229   3.662355   0.000000
    11  O    3.790645   3.296097   3.590680   4.599451   2.591057
    12  H    2.747906   3.240232   2.078245   2.297373   4.881125
    13  H    3.512657   2.735804   2.080668   3.692552   5.234637
    14  H    2.200568   2.055690   3.250371   3.009406   3.770190
    15  H    3.886636   2.051399   2.076804   4.718543   3.746846
    16  H    2.163036   3.711039   4.031374   2.546544   2.080510
    17  H    3.037591   3.264890   2.436965   3.250275   3.312883
    18  H    1.097553   2.997265   4.139558   2.078872   2.467453
    19  H    1.953195   4.323772   4.288890   0.970696   3.800259
    20  H    2.910214   3.779851   5.122729   3.964631   0.969273
    21  H    3.718647   3.255736   4.123398   4.735555   1.936585
                   11         12         13         14         15
    11  O    0.000000
    12  H    5.044941   0.000000
    13  H    5.367536   1.789773   0.000000
    14  H    5.031625   2.801357   2.397691   0.000000
    15  H    2.515201   4.028895   3.583906   3.995838   0.000000
    16  H    2.850464   4.205116   5.234856   4.287752   4.288888
    17  H    2.036402   3.490175   4.316432   4.495227   2.756626
    18  H    4.455796   3.624561   4.223300   2.329859   4.690444
    19  H    4.942491   3.227275   4.657113   3.754732   5.460530
    20  H    3.221197   5.527577   6.042499   4.424514   4.687765
    21  H    0.977962   5.425977   5.660509   4.913253   2.936025
                   16         17         18         19         20
    16  H    0.000000
    17  H    2.377066   0.000000
    18  H    2.619036   4.021257   0.000000
    19  H    2.424134   3.697500   2.247691   0.000000
    20  H    2.140259   3.914797   2.685709   3.862980   0.000000
    21  H    2.823183   2.767157   4.160480   5.003682   2.521501
                   21
    21  H    0.000000
 Stoichiometry    C6H10O5
 Framework group  C1[X(C6H10O5)]
 Deg. of freedom    57
 Full point group                 C1      NOp   1
 Largest Abelian subgroup         C1      NOp   1
 Largest concise Abelian subgroup C1      NOp   1
                         Standard orientation:                         
 ---------------------------------------------------------------------
 Center     Atomic      Atomic             Coordinates (Angstroms)
 Number     Number       Type             X           Y           Z
 ---------------------------------------------------------------------
      1          6           0       -2.135950   -0.553939   -0.074948
      2          6           0       -1.240052    0.262561    0.864079
      3          6           0       -0.006195   -1.411680    0.100942
      4          6           0        0.980437    0.900580   -0.253518
      5          6           0        1.015043   -0.579762   -0.716501
      6          6           0       -0.429578    1.390960    0.163521
      7          8           0       -0.331963   -0.759620    1.316406
      8          8           0       -1.233218   -1.529659   -0.622184
      9          8           0       -1.181454    1.855121   -0.954652
     10          8           0        1.876030    0.994418    0.868485
     11          8           0        2.330737   -1.093085   -0.597512
     12          1           0       -2.578799    0.033112   -0.879592
     13          1           0       -2.924298   -1.059580    0.495159
     14          1           0       -1.776416    0.642056    1.734403
     15          1           0        0.393679   -2.403943    0.327526
     16          1           0        1.342892    1.539125   -1.067382
     17          1           0        0.726738   -0.646540   -1.769995
     18          1           0       -0.273720    2.205493    0.882456
     19          1           0       -0.783267    2.688699   -1.252723
     20          1           0        2.381856    1.816813    0.783064
     21          1           0        2.708039   -0.604958    0.161293
 ---------------------------------------------------------------------
 Rotational constants (GHZ):      1.5691963      1.2035178      0.9126817
 Standard basis: 6-31+G(d,p) (6D, 7F)
 There are   259 symmetry adapted basis functions of A   symmetry.
 Integral buffers will be    131072 words long.
 Raffenetti 2 integral format.
 Two-electron integral symmetry is turned on.
   259 basis functions,   422 primitive gaussians,   259 cartesian basis functions
    43 alpha electrons       43 beta electrons
       nuclear repulsion energy       726.7957136622 Hartrees.
 NAtoms=   21 NActive=   21 NUniq=   21 SFac= 1.00D+00 NAtFMM=   60 NAOKFM=F Big=F
 ------------------------------------------------------------------------------
 Polarizable Continuum Model (PCM)
 =================================
 Model                : C-PCM.
 Atomic radii         : SMD-Coulomb.
 Polarization charges : Total charges.
 Charge compensation  : None.
 Solution method      : Matrix inversion.
 Cavity type          : VdW (van der Waals Surface) (Alpha=1.000).
 Cavity algorithm     : GePol (No added spheres)
                        Default sphere list used, NSphG=   21.
                        Lebedev-Laikov grids with approx.  5.0 points / Ang**2.
                        Smoothing algorithm: Karplus/York (Gamma=1.0000).
                        Polarization charges: spherical gaussians, with
                                              point-specific exponents (IZeta= 3).
                        Self-potential: point-specific (ISelfS= 7).
                        Self-field    : sphere-specific E.n sum rule (ISelfD= 2).
 Solvent              : Water, Eps=  78.355300 Eps(inf)=   1.777849
 ------------------------------------------------------------------------------
 ------------------------------------------------------------------------------
 Atomic radii for non-electrostatic terms: SMD-CDS.
 ------------------------------------------------------------------------------
 Nuclear repulsion after PCM non-electrostatic terms =      726.8010189596 Hartrees.
 One-electron integrals computed using PRISM.
 NBasis=   259 RedAO= T  NBF=   259
 NBsUse=   259 1.00D-06 NBFU=   259
 Harris functional with IExCor=  402 diagonalized for initial guess.
 ExpMin= 4.38D-02 ExpMax= 5.48D+03 ExpMxC= 8.25D+02 IAcc=2 IRadAn=         4 AccDes= 0.00D+00
 HarFok:  IExCor=  402 AccDes= 0.00D+00 IRadAn=         4 IDoV= 1
 ScaDFX=  1.000000  1.000000  1.000000  1.000000
 FoFCou: FMM=F IPFlag=           0 FMFlag=      100000 FMFlg1=           0
         NFxFlg=           0 DoJE=T BraDBF=F KetDBF=T FulRan=T
         Omega=  0.000000  0.000000  1.000000  0.000000  0.000000 ICntrl=     500 IOpCl=  0
         NMat0=    1 NMatS0=    1 NMatT0=    0 NMatD0=    1 NMtDS0=    0 NMtDT0=    0
         I1Cent=           4 NGrid=           0.
 Petite list used in FoFCou.
 Initial guess orbital symmetries:
       Occupied  (A) (A) (A) (A) (A) (A) (A) (A) (A) (A) (A) (A)
                 (A) (A) (A) (A) (A) (A) (A) (A) (A) (A) (A) (A)
                 (A) (A) (A) (A) (A) (A) (A) (A) (A) (A) (A) (A)
                 (A) (A) (A) (A) (A) (A) (A)
       Virtual   (A) (A) (A) (A) (A) (A) (A) (A) (A) (A) (A) (A)
                 (A) (A) (A) (A) (A) (A) (A) (A) (A) (A) (A) (A)
                 (A) (A) (A) (A) (A) (A) (A) (A) (A) (A) (A) (A)
                 (A) (A) (A) (A) (A) (A) (A) (A) (A) (A) (A) (A)
                 (A) (A) (A) (A) (A) (A) (A) (A) (A) (A) (A) (A)
                 (A) (A) (A) (A) (A) (A) (A) (A) (A) (A) (A) (A)
                 (A) (A) (A) (A) (A) (A) (A) (A) (A) (A) (A) (A)
                 (A) (A) (A) (A) (A) (A) (A) (A) (A) (A) (A) (A)
                 (A) (A) (A) (A) (A) (A) (A) (A) (A) (A) (A) (A)
                 (A) (A) (A) (A) (A) (A) (A) (A) (A) (A) (A) (A)
                 (A) (A) (A) (A) (A) (A) (A) (A) (A) (A) (A) (A)
                 (A) (A) (A) (A) (A) (A) (A) (A) (A) (A) (A) (A)
                 (A) (A) (A) (A) (A) (A) (A) (A) (A) (A) (A) (A)
                 (A) (A) (A) (A) (A) (A) (A) (A) (A) (A) (A) (A)
                 (A) (A) (A) (A) (A) (A) (A) (A) (A) (A) (A) (A)
                 (A) (A) (A) (A) (A) (A) (A) (A) (A) (A) (A) (A)
                 (A) (A) (A) (A) (A) (A) (A) (A) (A) (A) (A) (A)
                 (A) (A) (A) (A) (A) (A) (A) (A) (A) (A) (A) (A)
 The electronic state of the initial guess is 1-A.
 Requested convergence on RMS density matrix=1.00D-08 within 128 cycles.
 Requested convergence on MAX density matrix=1.00D-06.
 Requested convergence on             energy=1.00D-06.
 No special actions if energy rises.
 Error on total polarization charges =  0.05684
 SCF Done:  E(RB3LYP) =  -610.799832649     A.U. after   12 cycles
             Convg  =    0.4468D-08             -V/T =  2.0090
 SMD-CDS (non-electrostatic) energy       (kcal/mol) =       3.33
 (included in total energy above)

 **********************************************************************

            Population analysis using the SCF density.

 **********************************************************************

 Orbital symmetries:
       Occupied  (A) (A) (A) (A) (A) (A) (A) (A) (A) (A) (A) (A)
                 (A) (A) (A) (A) (A) (A) (A) (A) (A) (A) (A) (A)
                 (A) (A) (A) (A) (A) (A) (A) (A) (A) (A) (A) (A)
                 (A) (A) (A) (A) (A) (A) (A)
       Virtual   (A) (A) (A) (A) (A) (A) (A) (A) (A) (A) (A) (A)
                 (A) (A) (A) (A) (A) (A) (A) (A) (A) (A) (A) (A)
                 (A) (A) (A) (A) (A) (A) (A) (A) (A) (A) (A) (A)
                 (A) (A) (A) (A) (A) (A) (A) (A) (A) (A) (A) (A)
                 (A) (A) (A) (A) (A) (A) (A) (A) (A) (A) (A) (A)
                 (A) (A) (A) (A) (A) (A) (A) (A) (A) (A) (A) (A)
                 (A) (A) (A) (A) (A) (A) (A) (A) (A) (A) (A) (A)
                 (A) (A) (A) (A) (A) (A) (A) (A) (A) (A) (A) (A)
                 (A) (A) (A) (A) (A) (A) (A) (A) (A) (A) (A) (A)
                 (A) (A) (A) (A) (A) (A) (A) (A) (A) (A) (A) (A)
                 (A) (A) (A) (A) (A) (A) (A) (A) (A) (A) (A) (A)
                 (A) (A) (A) (A) (A) (A) (A) (A) (A) (A) (A) (A)
                 (A) (A) (A) (A) (A) (A) (A) (A) (A) (A) (A) (A)
                 (A) (A) (A) (A) (A) (A) (A) (A) (A) (A) (A) (A)
                 (A) (A) (A) (A) (A) (A) (A) (A) (A) (A) (A) (A)
                 (A) (A) (A) (A) (A) (A) (A) (A) (A) (A) (A) (A)
                 (A) (A) (A) (A) (A) (A) (A) (A) (A) (A) (A) (A)
                 (A) (A) (A) (A) (A) (A) (A) (A) (A) (A) (A) (A)
 The electronic state is 1-A.
 Alpha  occ. eigenvalues --  -19.18190 -19.17405 -19.17224 -19.17100 -19.16452
 Alpha  occ. eigenvalues --  -10.28900 -10.24954 -10.24877 -10.24829 -10.24217
 Alpha  occ. eigenvalues --  -10.23485  -1.10898  -1.05355  -1.03818  -1.02090
 Alpha  occ. eigenvalues --   -1.00963  -0.78752  -0.77526  -0.67575  -0.66059
 Alpha  occ. eigenvalues --   -0.61908  -0.57720  -0.55331  -0.54586  -0.52232
 Alpha  occ. eigenvalues --   -0.50225  -0.47923  -0.46959  -0.45548  -0.44023
 Alpha  occ. eigenvalues --   -0.42295  -0.41287  -0.40361  -0.38417  -0.36310
 Alpha  occ. eigenvalues --   -0.35757  -0.34917  -0.34688  -0.32340  -0.31249
 Alpha  occ. eigenvalues --   -0.28638  -0.27536  -0.25871
 Alpha virt. eigenvalues --    0.00469   0.01060   0.02284   0.03009   0.04277
 Alpha virt. eigenvalues --    0.04657   0.04887   0.05177   0.06213   0.07953
 Alpha virt. eigenvalues --    0.08880   0.09106   0.10156   0.11041   0.11656
 Alpha virt. eigenvalues --    0.12414   0.12806   0.13587   0.14240   0.14491
 Alpha virt. eigenvalues --    0.15363   0.15695   0.16321   0.16975   0.17492
 Alpha virt. eigenvalues --    0.18313   0.19128   0.19563   0.19752   0.20508
 Alpha virt. eigenvalues --    0.21531   0.21714   0.22714   0.23456   0.24242
 Alpha virt. eigenvalues --    0.24334   0.25571   0.25955   0.26225   0.26812
 Alpha virt. eigenvalues --    0.27519   0.27702   0.28634   0.28892   0.29615
 Alpha virt. eigenvalues --    0.30407   0.31595   0.32093   0.33006   0.33380
 Alpha virt. eigenvalues --    0.34482   0.35017   0.35646   0.36360   0.36970
 Alpha virt. eigenvalues --    0.37428   0.38253   0.38824   0.39342   0.40655
 Alpha virt. eigenvalues --    0.41684   0.42006   0.43866   0.44792   0.45946
 Alpha virt. eigenvalues --    0.49271   0.65342   0.66334   0.67546   0.69300
 Alpha virt. eigenvalues --    0.71896   0.73069   0.73668   0.77243   0.78190
 Alpha virt. eigenvalues --    0.79020   0.80824   0.81177   0.81718   0.84501
 Alpha virt. eigenvalues --    0.84759   0.90483   0.92412   0.94431   0.98180
 Alpha virt. eigenvalues --    1.00982   1.01932   1.03449   1.04488   1.06054
 Alpha virt. eigenvalues --    1.06352   1.07407   1.09503   1.10128   1.11495
 Alpha virt. eigenvalues --    1.18164   1.20972   1.22053   1.25429   1.26561
 Alpha virt. eigenvalues --    1.26856   1.28634   1.29959   1.32015   1.32763
 Alpha virt. eigenvalues --    1.33509   1.34736   1.36601   1.37593   1.40278
 Alpha virt. eigenvalues --    1.42281   1.45499   1.48162   1.49740   1.50017
 Alpha virt. eigenvalues --    1.52487   1.54283   1.57509   1.58981   1.60393
 Alpha virt. eigenvalues --    1.61749   1.63011   1.64831   1.67371   1.68568
 Alpha virt. eigenvalues --    1.71239   1.72732   1.75267   1.76575   1.77763
 Alpha virt. eigenvalues --    1.78931   1.81135   1.82710   1.84996   1.87280
 Alpha virt. eigenvalues --    1.88631   1.90866   1.94575   1.96925   1.97951
 Alpha virt. eigenvalues --    1.98770   2.01418   2.01935   2.04964   2.05439
 Alpha virt. eigenvalues --    2.07091   2.10479   2.12858   2.15839   2.17433
 Alpha virt. eigenvalues --    2.19731   2.21760   2.24513   2.27140   2.32706
 Alpha virt. eigenvalues --    2.34152   2.36978   2.39397   2.40259   2.42834
 Alpha virt. eigenvalues --    2.44982   2.46797   2.49068   2.49988   2.52781
 Alpha virt. eigenvalues --    2.57041   2.58062   2.59195   2.63108   2.64568
 Alpha virt. eigenvalues --    2.65991   2.67184   2.67860   2.69443   2.69578
 Alpha virt. eigenvalues --    2.70965   2.71874   2.74717   2.76186   2.78621
 Alpha virt. eigenvalues --    2.82646   2.84144   2.87113   2.87566   2.89905
 Alpha virt. eigenvalues --    2.92106   2.93525   2.95486   2.98698   2.99770
 Alpha virt. eigenvalues --    3.03290   3.07086   3.10329   3.17485   3.21967
 Alpha virt. eigenvalues --    3.34662   3.40250   3.44099   3.44796   3.48341
 Alpha virt. eigenvalues --    3.50039   3.52895   3.54102   3.55269   3.57496
 Alpha virt. eigenvalues --    4.25350   4.31121   4.40795   4.43082   4.50431
 Alpha virt. eigenvalues --    4.53779   4.60870   4.76530   4.89247   4.93642
 Alpha virt. eigenvalues --    5.04319
          Condensed to atoms (all electrons):
              1          2          3          4          5          6
     1  C    5.460116   0.110375  -0.246368   0.094020  -0.020409  -0.327948
     2  C    0.110375   6.057781  -0.474662  -0.063758   0.094106   0.050742
     3  C   -0.246368  -0.474662   6.352388  -0.125302  -0.716243   0.397266
     4  C    0.094020  -0.063758  -0.125302   5.880459   0.055534  -0.286514
     5  C   -0.020409   0.094106  -0.716243   0.055534   6.688803  -0.455383
     6  C   -0.327948   0.050742   0.397266  -0.286514  -0.455383   6.308457
     7  O   -0.030993   0.096872   0.232820   0.071860  -0.104229  -0.186853
     8  O    0.168007  -0.163713   0.286157  -0.021468  -0.117739   0.068659
     9  O    0.041975  -0.167980  -0.027381  -0.005641   0.018772   0.131070
    10  O    0.004308  -0.016840   0.074204   0.209323  -0.254270  -0.033387
    11  O    0.001868   0.002566  -0.149395  -0.117022   0.321393   0.020147
    12  H    0.466944  -0.132449   0.021873   0.001359   0.004766  -0.002501
    13  H    0.384001  -0.012680  -0.027473  -0.007974   0.005813   0.038335
    14  H   -0.011449   0.320962   0.017154   0.012805  -0.004582   0.001268
    15  H    0.011499   0.008154   0.391164   0.021146  -0.066841   0.010710
    16  H   -0.004853   0.004387   0.023782   0.380480  -0.058503  -0.009860
    17  H    0.017397  -0.007539  -0.101208  -0.055644   0.469631  -0.001127
    18  H    0.011457  -0.018388  -0.023273  -0.026526   0.032726   0.346732
    19  H   -0.005879   0.029237   0.001796  -0.027644  -0.007382   0.020802
    20  H    0.000075   0.005223  -0.011459   0.030237   0.028897  -0.040391
    21  H   -0.000028  -0.003399  -0.005664  -0.059649   0.025337   0.015604
              7          8          9         10         11         12
     1  C   -0.030993   0.168007   0.041975   0.004308   0.001868   0.466944
     2  C    0.096872  -0.163713  -0.167980  -0.016840   0.002566  -0.132449
     3  C    0.232820   0.286157  -0.027381   0.074204  -0.149395   0.021873
     4  C    0.071860  -0.021468  -0.005641   0.209323  -0.117022   0.001359
     5  C   -0.104229  -0.117739   0.018772  -0.254270   0.321393   0.004766
     6  C   -0.186853   0.068659   0.131070  -0.033387   0.020147  -0.002501
     7  O    8.439298  -0.068785   0.015570  -0.000302   0.010034   0.011310
     8  O   -0.068785   8.435001   0.000586   0.001250   0.006044  -0.045633
     9  O    0.015570   0.000586   8.410075   0.002620   0.000903   0.000854
    10  O   -0.000302   0.001250   0.002620   8.448567  -0.008215   0.000015
    11  O    0.010034   0.006044   0.000903  -0.008215   8.326081  -0.000009
    12  H    0.011310  -0.045633   0.000854   0.000015  -0.000009   0.532631
    13  H   -0.005354  -0.050365  -0.002586   0.000034   0.000073  -0.039987
    14  H   -0.036252   0.008024   0.006249  -0.001322   0.000089   0.002515
    15  H   -0.048261  -0.041697  -0.000023  -0.001577   0.000947  -0.000266
    16  H   -0.000222  -0.001156  -0.010536  -0.034719   0.006975  -0.000008
    17  H    0.008834  -0.000588   0.002504   0.006670  -0.058335  -0.000026
    18  H    0.002426  -0.000817  -0.036879  -0.001236  -0.000757   0.000065
    19  H   -0.000488  -0.000636   0.237078   0.000072   0.000083   0.000472
    20  H    0.001857   0.000044   0.000419   0.245241  -0.002590   0.000000
    21  H   -0.000136  -0.000276  -0.000126   0.030864   0.249976   0.000000
             13         14         15         16         17         18
     1  C    0.384001  -0.011449   0.011499  -0.004853   0.017397   0.011457
     2  C   -0.012680   0.320962   0.008154   0.004387  -0.007539  -0.018388
     3  C   -0.027473   0.017154   0.391164   0.023782  -0.101208  -0.023273
     4  C   -0.007974   0.012805   0.021146   0.380480  -0.055644  -0.026526
     5  C    0.005813  -0.004582  -0.066841  -0.058503   0.469631   0.032726
     6  C    0.038335   0.001268   0.010710  -0.009860  -0.001127   0.346732
     7  O   -0.005354  -0.036252  -0.048261  -0.000222   0.008834   0.002426
     8  O   -0.050365   0.008024  -0.041697  -0.001156  -0.000588  -0.000817
     9  O   -0.002586   0.006249  -0.000023  -0.010536   0.002504  -0.036879
    10  O    0.000034  -0.001322  -0.001577  -0.034719   0.006670  -0.001236
    11  O    0.000073   0.000089   0.000947   0.006975  -0.058335  -0.000757
    12  H   -0.039987   0.002515  -0.000266  -0.000008  -0.000026   0.000065
    13  H    0.561553  -0.004665   0.000434   0.000002  -0.000030  -0.000094
    14  H   -0.004665   0.518039  -0.000045  -0.000107   0.000038  -0.008749
    15  H    0.000434  -0.000045   0.546290  -0.000140   0.000686  -0.000001
    16  H    0.000002  -0.000107  -0.000140   0.547765  -0.006206  -0.002199
    17  H   -0.000030   0.000038   0.000686  -0.006206   0.540249  -0.000088
    18  H   -0.000094  -0.008749  -0.000001  -0.002199  -0.000088   0.565349
    19  H   -0.000019  -0.000263  -0.000001   0.003483  -0.000053  -0.007184
    20  H    0.000000   0.000016   0.000014  -0.009918  -0.000110   0.001059
    21  H    0.000000   0.000001  -0.000347  -0.000394   0.006001  -0.000044
             19         20         21
     1  C   -0.005879   0.000075  -0.000028
     2  C    0.029237   0.005223  -0.003399
     3  C    0.001796  -0.011459  -0.005664
     4  C   -0.027644   0.030237  -0.059649
     5  C   -0.007382   0.028897   0.025337
     6  C    0.020802  -0.040391   0.015604
     7  O   -0.000488   0.001857  -0.000136
     8  O   -0.000636   0.000044  -0.000276
     9  O    0.237078   0.000419  -0.000126
    10  O    0.000072   0.245241   0.030864
    11  O    0.000083  -0.002590   0.249976
    12  H    0.000472   0.000000   0.000000
    13  H   -0.000019   0.000000   0.000000
    14  H   -0.000263   0.000016   0.000001
    15  H   -0.000001   0.000014  -0.000347
    16  H    0.003483  -0.009918  -0.000394
    17  H   -0.000053  -0.000110   0.006001
    18  H   -0.007184   0.001059  -0.000044
    19  H    0.333506   0.000002  -0.000001
    20  H    0.000002   0.320744  -0.001573
    21  H   -0.000001  -0.001573   0.334897
 Mulliken atomic charges:
              1
     1  C   -0.124116
     2  C    0.281004
     3  C    0.109823
     4  C    0.039918
     5  C    0.059802
     6  C   -0.065828
     7  O   -0.409007
     8  O   -0.460900
     9  O   -0.617522
    10  O   -0.671301
    11  O   -0.610855
    12  H    0.178074
    13  H    0.160982
    14  H    0.180273
    15  H    0.168154
    16  H    0.171945
    17  H    0.178947
    18  H    0.166420
    19  H    0.423020
    20  H    0.432212
    21  H    0.408956
 Sum of Mulliken atomic charges =   0.00000
 Mulliken charges with hydrogens summed into heavy atoms:
              1
     1  C    0.214940
     2  C    0.461277
     3  C    0.277977
     4  C    0.211863
     5  C    0.238749
     6  C    0.100592
     7  O   -0.409007
     8  O   -0.460900
     9  O   -0.194503
    10  O   -0.239089
    11  O   -0.201899
 Sum of Mulliken charges with hydrogens summed into heavy atoms =   0.00000
 Electronic spatial extent (au):  <R**2>=           1426.2839
 Charge=              0.0000 electrons
 Dipole moment (field-independent basis, Debye):
    X=              0.1595    Y=              7.2651    Z=              0.3003  Tot=              7.2730
 Quadrupole moment (field-independent basis, Debye-Ang):
   XX=            -64.2420   YY=            -56.7517   ZZ=            -69.8703
   XY=              7.5338   XZ=             -2.1791   YZ=             -3.1001
 Traceless Quadrupole moment (field-independent basis, Debye-Ang):
   XX=             -0.6207   YY=              6.8696   ZZ=             -6.2489
   XY=              7.5338   XZ=             -2.1791   YZ=             -3.1001
 Octapole moment (field-independent basis, Debye-Ang**2):
  XXX=             -0.0778  YYY=             47.8908  ZZZ=             -7.1029  XYY=             16.0034
  XXY=             22.7907  XXZ=             20.3112  XZZ=             -2.3887  YZZ=             12.2433
  YYZ=              0.7345  XYZ=             -4.1525
 Hexadecapole moment (field-independent basis, Debye-Ang**3):
 XXXX=           -808.6736 YYYY=           -511.2389 ZZZZ=           -302.1468 XXXY=             77.3746
 XXXZ=             33.9475 YYYX=             21.1614 YYYZ=            -39.9477 ZZZX=             -4.4948
 ZZZY=             -2.6144 XXYY=           -249.8667 XXZZ=           -200.5050 YYZZ=           -141.0394
 XXYZ=             -8.2804 YYXZ=              9.4420 ZZXY=             -1.9454
 N-N= 7.268010189596D+02 E-N=-2.884205624177D+03  KE= 6.053420625080D+02

 Test job not archived.
 1\1\GINC-COMPUTE-10-4\SP\RB3LYP\6-31+G(d,p)\C6H10O5\ASAROTTI.IQUIR\15-
 Apr-2019\0\\# B3LYP/6-31+G** test scrf=(pcm,solvent=water,smd,dovacuum
 )\\comment\\0,1\C,0,-2.13595,-0.553939,-0.074948\C,0,-1.240052,0.26256
 1,0.864079\C,0,-0.006195,-1.41168,0.100942\C,0,0.980437,0.90058,-0.253
 518\C,0,1.015043,-0.579762,-0.716501\C,0,-0.429578,1.39096,0.163521\O,
 0,-0.331963,-0.75962,1.316406\O,0,-1.233218,-1.529659,-0.622184\O,0,-1
 .181454,1.855121,-0.954652\O,0,1.87603,0.994418,0.868485\O,0,2.330737,
 -1.093085,-0.597512\H,0,-2.578799,0.033112,-0.879592\H,0,-2.924298,-1.
 05958,0.495159\H,0,-1.776416,0.642056,1.734403\H,0,0.393679,-2.403943,
 0.327526\H,0,1.342892,1.539125,-1.067382\H,0,0.726738,-0.64654,-1.7699
 95\H,0,-0.27372,2.205493,0.882456\H,0,-0.783267,2.688699,-1.252723\H,0
 ,2.381856,1.816813,0.783064\H,0,2.708039,-0.604958,0.161293\\Version=E
 M64L-G09RevC.01\State=1-A\HF=-610.7998326\RMSD=4.468e-09\Dipole=0.0627
 654,2.8582991,0.1181406\Quadrupole=-0.4614523,5.1073776,-4.6459253,5.6
 011754,-1.6201252,-2.3048273\PG=C01 [X(C6H10O5)]\\@


 GETTING A SIMPLE ANSWER FROM A PROFESSOR IS LIKE
 GETTING A THIMBLE OF WATER FROM A FIRE HYDRANT.
     -- PROF. LEN SHAPIRO, NDSU
 Job cpu time:  0 days  0 hours  5 minutes 20.5 seconds.
 File lengths (MBytes):  RWF=     56 Int=      0 D2E=      0 Chk=      4 Scr=      1
 Normal termination of Gaussian 09 at Mon Apr 15 18:17:56 2019.
