 Entering Gaussian System, Link 0=g09
 Input=/home/asarotti.iquir/SCF3/03_RRS_Levo16_OPTB_energy_b3lyp_smd.gjc
 Output=/home/asarotti.iquir/SCF3/03_RRS_Levo16_OPTB_energy_b3lyp_smd.log
 Initial command:
 /share/apps/Gaussian09/EM64T.SSE4.2-enabled/g09/l1.exe /tmp/Gau-24863.inp -scrdir=/tmp/
 Entering Link 1 = /share/apps/Gaussian09/EM64T.SSE4.2-enabled/g09/l1.exe PID=     24864.
  
 Copyright (c) 1988,1990,1992,1993,1995,1998,2003,2009,2011,
            Gaussian, Inc.  All Rights Reserved.
  
 This is part of the Gaussian(R) 09 program.  It is based on
 the Gaussian(R) 03 system (copyright 2003, Gaussian, Inc.),
 the Gaussian(R) 98 system (copyright 1998, Gaussian, Inc.),
 the Gaussian(R) 94 system (copyright 1995, Gaussian, Inc.),
 the Gaussian 92(TM) system (copyright 1992, Gaussian, Inc.),
 the Gaussian 90(TM) system (copyright 1990, Gaussian, Inc.),
 the Gaussian 88(TM) system (copyright 1988, Gaussian, Inc.),
 the Gaussian 86(TM) system (copyright 1986, Carnegie Mellon
 University), and the Gaussian 82(TM) system (copyright 1983,
 Carnegie Mellon University). Gaussian is a federally registered
 trademark of Gaussian, Inc.
  
 This software contains proprietary and confidential information,
 including trade secrets, belonging to Gaussian, Inc.
  
 This software is provided under written license and may be
 used, copied, transmitted, or stored only in accord with that
 written license.
  
 The following legend is applicable only to US Government
 contracts under FAR:
  
                    RESTRICTED RIGHTS LEGEND
  
 Use, reproduction and disclosure by the US Government is
 subject to restrictions as set forth in subparagraphs (a)
 and (c) of the Commercial Computer Software - Restricted
 Rights clause in FAR 52.227-19.
  
 Gaussian, Inc.
 340 Quinnipiac St., Bldg. 40, Wallingford CT 06492
  
  
 ---------------------------------------------------------------
 Warning -- This program may not be used in any manner that
 competes with the business of Gaussian, Inc. or will provide
 assistance to any competitor of Gaussian, Inc.  The licensee
 of this program is prohibited from giving any competitor of
 Gaussian, Inc. access to this program.  By using this program,
 the user acknowledges that Gaussian, Inc. is engaged in the
 business of creating and licensing software in the field of
 computational chemistry and represents and warrants to the
 licensee that it is not a competitor of Gaussian, Inc. and that
 it will not use this program in any manner prohibited above.
 ---------------------------------------------------------------
  

 Cite this work as:
 Gaussian 09, Revision C.01,
 M. J. Frisch, G. W. Trucks, H. B. Schlegel, G. E. Scuseria, 
 M. A. Robb, J. R. Cheeseman, G. Scalmani, V. Barone, B. Mennucci, 
 G. A. Petersson, H. Nakatsuji, M. Caricato, X. Li, H. P. Hratchian, 
 A. F. Izmaylov, J. Bloino, G. Zheng, J. L. Sonnenberg, M. Hada, 
 M. Ehara, K. Toyota, R. Fukuda, J. Hasegawa, M. Ishida, T. Nakajima, 
 Y. Honda, O. Kitao, H. Nakai, T. Vreven, J. A. Montgomery, Jr., 
 J. E. Peralta, F. Ogliaro, M. Bearpark, J. J. Heyd, E. Brothers, 
 K. N. Kudin, V. N. Staroverov, T. Keith, R. Kobayashi, J. Normand, 
 K. Raghavachari, A. Rendell, J. C. Burant, S. S. Iyengar, J. Tomasi, 
 M. Cossi, N. Rega, J. M. Millam, M. Klene, J. E. Knox, J. B. Cross, 
 V. Bakken, C. Adamo, J. Jaramillo, R. Gomperts, R. E. Stratmann, 
 O. Yazyev, A. J. Austin, R. Cammi, C. Pomelli, J. W. Ochterski, 
 R. L. Martin, K. Morokuma, V. G. Zakrzewski, G. A. Voth, 
 P. Salvador, J. J. Dannenberg, S. Dapprich, A. D. Daniels, 
 O. Farkas, J. B. Foresman, J. V. Ortiz, J. Cioslowski, 
 and D. J. Fox, Gaussian, Inc., Wallingford CT, 2010.
 
 ******************************************
 Gaussian 09:  EM64L-G09RevC.01 23-Sep-2011
                15-Apr-2019 
 ******************************************
 %nprocshared=4
 Will use up to    4 processors via shared memory.
 -----------------------------------------------------------
 # B3LYP/6-31+G** test scrf=(pcm,solvent=water,smd,dovacuum)
 -----------------------------------------------------------
 1/38=1/1;
 2/12=2,17=6,18=5,40=1/2;
 3/5=1,6=6,7=111,11=2,16=1,25=1,30=1,70=32101,72=1,74=-5/1,2,3;
 4//1;
 5/5=2,38=5,53=1/2;
 6/7=2,8=2,9=2,10=2,28=1/1;
 99/5=1,9=1/99;
 -------
 comment
 -------
 Charge =  0 Multiplicity = 1
 Symbolic Z-Matrix:
 6                    -2.12142  -0.66777   0.05218 
 6                    -1.21973   0.19376   0.9275 
 6                     0.07643  -1.37287   0.04699 
 6                     0.92822   0.99428  -0.24979 
 6                     1.07974  -0.48103  -0.71409 
 6                    -0.52616   1.35523   0.13316 
 8                    -0.24047  -0.80151   1.29838 
 8                    -1.15068  -1.41898  -0.70214 
 8                    -1.28196   1.79061  -0.99572 
 8                     1.73707   1.24781   0.89071 
 8                     2.43426  -0.83333  -0.44204 
 1                    -2.75677  -0.11223  -0.63784 
 1                    -2.73676  -1.336     0.66581 
 1                    -1.6954    0.54648   1.84296 
 1                     0.46022  -2.38546   0.21247 
 1                     1.22454   1.65896  -1.0744 
 1                     0.87058  -0.56569  -1.78755 
 1                    -0.46094   2.23345   0.77977 
 1                    -1.25456   1.09135  -1.66965 
 1                     2.46597   0.60258   0.8479 
 1                     2.59493  -1.73989  -0.74866 
 
                          Input orientation:                          
 ---------------------------------------------------------------------
 Center     Atomic      Atomic             Coordinates (Angstroms)
 Number     Number       Type             X           Y           Z
 ---------------------------------------------------------------------
      1          6           0       -2.121420   -0.667774    0.052180
      2          6           0       -1.219731    0.193761    0.927499
      3          6           0        0.076427   -1.372868    0.046989
      4          6           0        0.928216    0.994282   -0.249788
      5          6           0        1.079735   -0.481028   -0.714088
      6          6           0       -0.526161    1.355231    0.133155
      7          8           0       -0.240466   -0.801510    1.298384
      8          8           0       -1.150683   -1.418980   -0.702144
      9          8           0       -1.281958    1.790611   -0.995720
     10          8           0        1.737069    1.247814    0.890713
     11          8           0        2.434261   -0.833332   -0.442043
     12          1           0       -2.756770   -0.112227   -0.637843
     13          1           0       -2.736755   -1.336002    0.665810
     14          1           0       -1.695401    0.546479    1.842956
     15          1           0        0.460217   -2.385460    0.212466
     16          1           0        1.224542    1.658959   -1.074400
     17          1           0        0.870580   -0.565691   -1.787552
     18          1           0       -0.460940    2.233450    0.779767
     19          1           0       -1.254560    1.091353   -1.669645
     20          1           0        2.465973    0.602583    0.847900
     21          1           0        2.594925   -1.739887   -0.748657
 ---------------------------------------------------------------------
                    Distance matrix (angstroms):
                    1          2          3          4          5
     1  C    0.000000
     2  C    1.523637   0.000000
     3  C    2.308185   2.215773   0.000000
     4  C    3.486244   2.576920   2.533184   0.000000
     5  C    3.296882   2.904771   1.543128   1.554050   0.000000
     6  C    2.577588   1.568768   2.795185   1.546655   2.582357
     7  O    2.260287   1.444673   1.411687   2.643392   2.428103
     8  O    1.440710   2.293782   1.438446   3.217185   2.419641
     9  O    2.801151   2.500515   3.597228   2.464837   3.288959
    10  O    4.388685   3.139275   3.215210   1.421008   2.448748
    11  O    4.585400   4.035124   2.467718   2.375985   1.425787
    12  H    1.090153   2.215042   3.175723   3.867049   3.854945
    13  H    1.096224   2.170258   2.880676   4.438531   4.147372
    14  H    2.205171   1.090291   3.169979   3.385775   3.910962
    15  H    3.104994   3.160044   1.095454   3.443161   2.206619
    16  H    4.228278   3.482653   3.430402   1.099813   2.174934
    17  H    3.513844   3.509654   2.155865   2.191245   1.096922
    18  H    3.421064   2.181266   3.719040   2.127269   3.460300
    19  H    2.609723   2.748098   3.284927   2.605749   2.972273
    20  H    4.826091   3.709162   3.202155   1.929519   2.352802
    21  H    4.902517   4.593484   2.666569   3.240751   1.970209
                    6          7          8          9         10
     6  C    0.000000
     7  O    2.467977   0.000000
     8  O    2.963781   2.282953   0.000000
     9  O    1.426585   3.614790   3.225662   0.000000
    10  O    2.389067   2.876903   4.241237   3.601081   0.000000
    11  O    3.726226   3.191279   3.641766   4.582785   2.567778
    12  H    2.779116   3.248980   2.071534   2.433914   4.937690
    13  H    3.523235   2.630074   2.096141   3.827901   5.171246
    14  H    2.223650   2.056810   3.261484   3.126800   3.630494
    15  H    3.869367   2.044278   2.089400   4.683424   3.910377
    16  H    2.148348   3.718906   3.905634   2.511188   2.072050
    17  H    3.054495   3.288318   2.447798   3.288248   3.348538
    18  H    1.092534   3.086836   4.001506   2.005625   2.411438
    19  H    1.962214   3.663402   2.692326   0.971539   3.940781
    20  H    3.167050   3.082081   4.423749   4.342503   0.974401
    21  H    4.483138   3.620825   3.759618   5.249350   3.514229
                   11         12         13         14         15
    11  O    0.000000
    12  H    5.244534   0.000000
    13  H    5.312196   1.788166   0.000000
    14  H    4.917236   2.777546   2.452310   0.000000
    15  H    2.595059   4.029841   3.395219   3.987663   0.000000
    16  H    2.841621   4.379330   5.262128   4.274885   4.312487
    17  H    2.080174   3.832118   4.430037   4.582769   2.734964
    18  H    4.390918   3.575284   4.234774   2.345237   4.743911
    19  H    4.338066   2.184000   3.680123   3.581842   4.309412
    20  H    1.930495   5.476808   5.555146   4.279056   3.654481
    21  H    0.970395   5.594837   5.530882   5.509158   2.428477
                   16         17         18         19         20
    16  H    0.000000
    17  H    2.362825   0.000000
    18  H    2.570763   4.024831   0.000000
    19  H    2.611980   2.697391   2.816707   0.000000
    20  H    2.520381   3.294807   3.351297   4.518771   0.000000
    21  H    3.679159   2.330537   5.240401   4.866485   2.837744
                   21
    21  H    0.000000
 Stoichiometry    C6H10O5
 Framework group  C1[X(C6H10O5)]
 Deg. of freedom    57
 Full point group                 C1      NOp   1
 Largest Abelian subgroup         C1      NOp   1
 Largest concise Abelian subgroup C1      NOp   1
                         Standard orientation:                         
 ---------------------------------------------------------------------
 Center     Atomic      Atomic             Coordinates (Angstroms)
 Number     Number       Type             X           Y           Z
 ---------------------------------------------------------------------
      1          6           0       -2.121420   -0.667774    0.052180
      2          6           0       -1.219731    0.193761    0.927499
      3          6           0        0.076427   -1.372868    0.046989
      4          6           0        0.928216    0.994282   -0.249788
      5          6           0        1.079735   -0.481028   -0.714088
      6          6           0       -0.526161    1.355231    0.133155
      7          8           0       -0.240466   -0.801510    1.298384
      8          8           0       -1.150683   -1.418980   -0.702144
      9          8           0       -1.281958    1.790611   -0.995720
     10          8           0        1.737069    1.247814    0.890713
     11          8           0        2.434261   -0.833332   -0.442043
     12          1           0       -2.756770   -0.112227   -0.637843
     13          1           0       -2.736755   -1.336002    0.665810
     14          1           0       -1.695401    0.546479    1.842956
     15          1           0        0.460217   -2.385460    0.212466
     16          1           0        1.224542    1.658959   -1.074400
     17          1           0        0.870580   -0.565691   -1.787552
     18          1           0       -0.460940    2.233450    0.779767
     19          1           0       -1.254560    1.091353   -1.669645
     20          1           0        2.465973    0.602583    0.847900
     21          1           0        2.594925   -1.739887   -0.748657
 ---------------------------------------------------------------------
 Rotational constants (GHZ):      1.6159069      1.1926858      0.9326930
 Standard basis: 6-31+G(d,p) (6D, 7F)
 There are   259 symmetry adapted basis functions of A   symmetry.
 Integral buffers will be    131072 words long.
 Raffenetti 2 integral format.
 Two-electron integral symmetry is turned on.
   259 basis functions,   422 primitive gaussians,   259 cartesian basis functions
    43 alpha electrons       43 beta electrons
       nuclear repulsion energy       730.0774119249 Hartrees.
 NAtoms=   21 NActive=   21 NUniq=   21 SFac= 1.00D+00 NAtFMM=   60 NAOKFM=F Big=F
 ------------------------------------------------------------------------------
 Polarizable Continuum Model (PCM)
 =================================
 Model                : C-PCM.
 Atomic radii         : SMD-Coulomb.
 Polarization charges : Total charges.
 Charge compensation  : None.
 Solution method      : Matrix inversion.
 Cavity type          : VdW (van der Waals Surface) (Alpha=1.000).
 Cavity algorithm     : GePol (No added spheres)
                        Default sphere list used, NSphG=   21.
                        Lebedev-Laikov grids with approx.  5.0 points / Ang**2.
                        Smoothing algorithm: Karplus/York (Gamma=1.0000).
                        Polarization charges: spherical gaussians, with
                                              point-specific exponents (IZeta= 3).
                        Self-potential: point-specific (ISelfS= 7).
                        Self-field    : sphere-specific E.n sum rule (ISelfD= 2).
 Solvent              : Water, Eps=  78.355300 Eps(inf)=   1.777849
 ------------------------------------------------------------------------------
 ------------------------------------------------------------------------------
 Atomic radii for non-electrostatic terms: SMD-CDS.
 ------------------------------------------------------------------------------
 Nuclear repulsion after PCM non-electrostatic terms =      730.0823345323 Hartrees.
 One-electron integrals computed using PRISM.
 NBasis=   259 RedAO= T  NBF=   259
 NBsUse=   259 1.00D-06 NBFU=   259
 Harris functional with IExCor=  402 diagonalized for initial guess.
 ExpMin= 4.38D-02 ExpMax= 5.48D+03 ExpMxC= 8.25D+02 IAcc=2 IRadAn=         4 AccDes= 0.00D+00
 HarFok:  IExCor=  402 AccDes= 0.00D+00 IRadAn=         4 IDoV= 1
 ScaDFX=  1.000000  1.000000  1.000000  1.000000
 FoFCou: FMM=F IPFlag=           0 FMFlag=      100000 FMFlg1=           0
         NFxFlg=           0 DoJE=T BraDBF=F KetDBF=T FulRan=T
         Omega=  0.000000  0.000000  1.000000  0.000000  0.000000 ICntrl=     500 IOpCl=  0
         NMat0=    1 NMatS0=    1 NMatT0=    0 NMatD0=    1 NMtDS0=    0 NMtDT0=    0
         I1Cent=           4 NGrid=           0.
 Petite list used in FoFCou.
 Initial guess orbital symmetries:
       Occupied  (A) (A) (A) (A) (A) (A) (A) (A) (A) (A) (A) (A)
                 (A) (A) (A) (A) (A) (A) (A) (A) (A) (A) (A) (A)
                 (A) (A) (A) (A) (A) (A) (A) (A) (A) (A) (A) (A)
                 (A) (A) (A) (A) (A) (A) (A)
       Virtual   (A) (A) (A) (A) (A) (A) (A) (A) (A) (A) (A) (A)
                 (A) (A) (A) (A) (A) (A) (A) (A) (A) (A) (A) (A)
                 (A) (A) (A) (A) (A) (A) (A) (A) (A) (A) (A) (A)
                 (A) (A) (A) (A) (A) (A) (A) (A) (A) (A) (A) (A)
                 (A) (A) (A) (A) (A) (A) (A) (A) (A) (A) (A) (A)
                 (A) (A) (A) (A) (A) (A) (A) (A) (A) (A) (A) (A)
                 (A) (A) (A) (A) (A) (A) (A) (A) (A) (A) (A) (A)
                 (A) (A) (A) (A) (A) (A) (A) (A) (A) (A) (A) (A)
                 (A) (A) (A) (A) (A) (A) (A) (A) (A) (A) (A) (A)
                 (A) (A) (A) (A) (A) (A) (A) (A) (A) (A) (A) (A)
                 (A) (A) (A) (A) (A) (A) (A) (A) (A) (A) (A) (A)
                 (A) (A) (A) (A) (A) (A) (A) (A) (A) (A) (A) (A)
                 (A) (A) (A) (A) (A) (A) (A) (A) (A) (A) (A) (A)
                 (A) (A) (A) (A) (A) (A) (A) (A) (A) (A) (A) (A)
                 (A) (A) (A) (A) (A) (A) (A) (A) (A) (A) (A) (A)
                 (A) (A) (A) (A) (A) (A) (A) (A) (A) (A) (A) (A)
                 (A) (A) (A) (A) (A) (A) (A) (A) (A) (A) (A) (A)
                 (A) (A) (A) (A) (A) (A) (A) (A) (A) (A) (A) (A)
 The electronic state of the initial guess is 1-A.
 Requested convergence on RMS density matrix=1.00D-08 within 128 cycles.
 Requested convergence on MAX density matrix=1.00D-06.
 Requested convergence on             energy=1.00D-06.
 No special actions if energy rises.
 Error on total polarization charges =  0.05742
 SCF Done:  E(RB3LYP) =  -610.796998139     A.U. after   12 cycles
             Convg  =    0.4091D-08             -V/T =  2.0090
 SMD-CDS (non-electrostatic) energy       (kcal/mol) =       3.09
 (included in total energy above)

 **********************************************************************

            Population analysis using the SCF density.

 **********************************************************************

 Orbital symmetries:
       Occupied  (A) (A) (A) (A) (A) (A) (A) (A) (A) (A) (A) (A)
                 (A) (A) (A) (A) (A) (A) (A) (A) (A) (A) (A) (A)
                 (A) (A) (A) (A) (A) (A) (A) (A) (A) (A) (A) (A)
                 (A) (A) (A) (A) (A) (A) (A)
       Virtual   (A) (A) (A) (A) (A) (A) (A) (A) (A) (A) (A) (A)
                 (A) (A) (A) (A) (A) (A) (A) (A) (A) (A) (A) (A)
                 (A) (A) (A) (A) (A) (A) (A) (A) (A) (A) (A) (A)
                 (A) (A) (A) (A) (A) (A) (A) (A) (A) (A) (A) (A)
                 (A) (A) (A) (A) (A) (A) (A) (A) (A) (A) (A) (A)
                 (A) (A) (A) (A) (A) (A) (A) (A) (A) (A) (A) (A)
                 (A) (A) (A) (A) (A) (A) (A) (A) (A) (A) (A) (A)
                 (A) (A) (A) (A) (A) (A) (A) (A) (A) (A) (A) (A)
                 (A) (A) (A) (A) (A) (A) (A) (A) (A) (A) (A) (A)
                 (A) (A) (A) (A) (A) (A) (A) (A) (A) (A) (A) (A)
                 (A) (A) (A) (A) (A) (A) (A) (A) (A) (A) (A) (A)
                 (A) (A) (A) (A) (A) (A) (A) (A) (A) (A) (A) (A)
                 (A) (A) (A) (A) (A) (A) (A) (A) (A) (A) (A) (A)
                 (A) (A) (A) (A) (A) (A) (A) (A) (A) (A) (A) (A)
                 (A) (A) (A) (A) (A) (A) (A) (A) (A) (A) (A) (A)
                 (A) (A) (A) (A) (A) (A) (A) (A) (A) (A) (A) (A)
                 (A) (A) (A) (A) (A) (A) (A) (A) (A) (A) (A) (A)
                 (A) (A) (A) (A) (A) (A) (A) (A) (A) (A) (A) (A)
 The electronic state is 1-A.
 Alpha  occ. eigenvalues --  -19.18250 -19.17748 -19.17584 -19.17151 -19.16297
 Alpha  occ. eigenvalues --  -10.29280 -10.24941 -10.24872 -10.24840 -10.24707
 Alpha  occ. eigenvalues --  -10.23738  -1.11143  -1.05520  -1.03896  -1.02273
 Alpha  occ. eigenvalues --   -1.01009  -0.78937  -0.77563  -0.68498  -0.65599
 Alpha  occ. eigenvalues --   -0.62464  -0.58236  -0.55324  -0.53941  -0.52861
 Alpha  occ. eigenvalues --   -0.50172  -0.47642  -0.47113  -0.45026  -0.44730
 Alpha  occ. eigenvalues --   -0.43309  -0.41180  -0.39951  -0.38170  -0.37722
 Alpha  occ. eigenvalues --   -0.36375  -0.35411  -0.34370  -0.31404  -0.30521
 Alpha  occ. eigenvalues --   -0.29872  -0.27967  -0.25526
 Alpha virt. eigenvalues --    0.00732   0.00830   0.02539   0.03008   0.04149
 Alpha virt. eigenvalues --    0.04546   0.05252   0.05375   0.05747   0.08333
 Alpha virt. eigenvalues --    0.08534   0.09369   0.09782   0.10955   0.11756
 Alpha virt. eigenvalues --    0.12467   0.12797   0.13401   0.13951   0.14154
 Alpha virt. eigenvalues --    0.15344   0.15938   0.16522   0.16987   0.17271
 Alpha virt. eigenvalues --    0.18254   0.18850   0.19875   0.19936   0.20568
 Alpha virt. eigenvalues --    0.20816   0.21514   0.22096   0.23554   0.23878
 Alpha virt. eigenvalues --    0.24609   0.25182   0.25780   0.26046   0.26972
 Alpha virt. eigenvalues --    0.27145   0.27863   0.28437   0.29293   0.29988
 Alpha virt. eigenvalues --    0.30533   0.31473   0.31997   0.32861   0.33330
 Alpha virt. eigenvalues --    0.34036   0.34508   0.35164   0.36099   0.36848
 Alpha virt. eigenvalues --    0.36959   0.38145   0.38883   0.39187   0.40856
 Alpha virt. eigenvalues --    0.41769   0.42437   0.44492   0.45246   0.46051
 Alpha virt. eigenvalues --    0.49879   0.65168   0.66465   0.67295   0.69208
 Alpha virt. eigenvalues --    0.70777   0.72852   0.73883   0.75711   0.76138
 Alpha virt. eigenvalues --    0.77848   0.79950   0.81447   0.82646   0.84101
 Alpha virt. eigenvalues --    0.86148   0.91832   0.91903   0.93922   0.96688
 Alpha virt. eigenvalues --    1.00824   1.02842   1.03137   1.04895   1.05724
 Alpha virt. eigenvalues --    1.07181   1.08357   1.09092   1.11568   1.12877
 Alpha virt. eigenvalues --    1.18231   1.21552   1.22923   1.25561   1.25942
 Alpha virt. eigenvalues --    1.27632   1.27892   1.28986   1.30678   1.32061
 Alpha virt. eigenvalues --    1.33557   1.35414   1.37006   1.38079   1.40551
 Alpha virt. eigenvalues --    1.43050   1.43786   1.46638   1.47081   1.50652
 Alpha virt. eigenvalues --    1.51191   1.52750   1.56180   1.57484   1.59290
 Alpha virt. eigenvalues --    1.61846   1.63502   1.65337   1.67832   1.68504
 Alpha virt. eigenvalues --    1.71399   1.73557   1.74562   1.76291   1.78455
 Alpha virt. eigenvalues --    1.78610   1.82077   1.83232   1.87517   1.88994
 Alpha virt. eigenvalues --    1.90267   1.92672   1.94409   1.96906   1.97631
 Alpha virt. eigenvalues --    1.98644   2.00704   2.01584   2.03478   2.05366
 Alpha virt. eigenvalues --    2.09356   2.11874   2.13981   2.15813   2.17039
 Alpha virt. eigenvalues --    2.19769   2.21129   2.24399   2.30739   2.31829
 Alpha virt. eigenvalues --    2.33391   2.35824   2.37800   2.40808   2.43037
 Alpha virt. eigenvalues --    2.45143   2.46128   2.49113   2.52898   2.54241
 Alpha virt. eigenvalues --    2.55354   2.56797   2.58089   2.60784   2.62793
 Alpha virt. eigenvalues --    2.64536   2.64895   2.66329   2.67655   2.69741
 Alpha virt. eigenvalues --    2.71684   2.72467   2.75615   2.77141   2.80587
 Alpha virt. eigenvalues --    2.80807   2.83832   2.84962   2.87207   2.91839
 Alpha virt. eigenvalues --    2.92339   2.94928   2.96998   2.99808   3.03528
 Alpha virt. eigenvalues --    3.05254   3.06762   3.10059   3.17082   3.19998
 Alpha virt. eigenvalues --    3.33765   3.39780   3.42534   3.44782   3.47439
 Alpha virt. eigenvalues --    3.49098   3.51237   3.52838   3.58448   3.59898
 Alpha virt. eigenvalues --    4.29356   4.29492   4.41025   4.47351   4.49030
 Alpha virt. eigenvalues --    4.56539   4.62983   4.73457   4.90417   4.91585
 Alpha virt. eigenvalues --    5.04553
          Condensed to atoms (all electrons):
              1          2          3          4          5          6
     1  C    5.476730   0.195829  -0.299053   0.088777   0.021655  -0.390040
     2  C    0.195829   6.195233  -0.433390  -0.068116   0.174992  -0.343622
     3  C   -0.299053  -0.433390   6.105618  -0.088048  -0.354254   0.207941
     4  C    0.088777  -0.068116  -0.088048   5.785768  -0.122031  -0.101576
     5  C    0.021655   0.174992  -0.354254  -0.122031   6.283677  -0.312662
     6  C   -0.390040  -0.343622   0.207941  -0.101576  -0.312662   6.698408
     7  O   -0.031493   0.138104   0.240359   0.063157  -0.128231  -0.204044
     8  O    0.190224  -0.227187   0.269044  -0.012018  -0.143359   0.127304
     9  O    0.042032  -0.059672   0.025341  -0.006960  -0.000059   0.052751
    10  O    0.002451   0.014038   0.000225   0.215049  -0.032995  -0.123074
    11  O    0.004322  -0.003621  -0.071435  -0.111355   0.183211   0.024720
    12  H    0.441755  -0.089172   0.022503  -0.001967   0.003201  -0.014689
    13  H    0.391613  -0.055446  -0.019434  -0.007663   0.002361   0.057158
    14  H   -0.014819   0.325236   0.022510   0.020026  -0.015574   0.003369
    15  H    0.007270  -0.003339   0.402569   0.022832  -0.076955   0.020207
    16  H   -0.003251   0.011462   0.025087   0.347372   0.025616  -0.094583
    17  H    0.017858   0.003353  -0.085554  -0.002425   0.388952  -0.025789
    18  H    0.029494  -0.065960  -0.021953  -0.044408   0.029024   0.417040
    19  H    0.011192  -0.050137  -0.009291  -0.029616   0.021003   0.049079
    20  H    0.000276  -0.003971   0.005876  -0.001642  -0.041561   0.018549
    21  H    0.000000  -0.001965  -0.035914   0.011499   0.027145   0.004299
              7          8          9         10         11         12
     1  C   -0.031493   0.190224   0.042032   0.002451   0.004322   0.441755
     2  C    0.138104  -0.227187  -0.059672   0.014038  -0.003621  -0.089172
     3  C    0.240359   0.269044   0.025341   0.000225  -0.071435   0.022503
     4  C    0.063157  -0.012018  -0.006960   0.215049  -0.111355  -0.001967
     5  C   -0.128231  -0.143359  -0.000059  -0.032995   0.183211   0.003201
     6  C   -0.204044   0.127304   0.052751  -0.123074   0.024720  -0.014689
     7  O    8.452409  -0.071959   0.013541   0.004982   0.013518   0.009217
     8  O   -0.071959   8.453122  -0.016715  -0.000125   0.005287  -0.044643
     9  O    0.013541  -0.016715   8.308314   0.006133  -0.000612   0.007689
    10  O    0.004982  -0.000125   0.006133   8.362242  -0.020120   0.000015
    11  O    0.013518   0.005287  -0.000612  -0.020120   8.398933   0.000013
    12  H    0.009217  -0.044643   0.007689   0.000015   0.000013   0.525673
    13  H   -0.004091  -0.043272  -0.002886   0.000021   0.000061  -0.036821
    14  H   -0.038628   0.009422   0.004118  -0.001771   0.000213   0.001749
    15  H   -0.052597  -0.038070  -0.000568  -0.001722  -0.002665  -0.000244
    16  H   -0.000670  -0.002062   0.003713  -0.045808   0.003426  -0.000001
    17  H    0.010202   0.003691   0.001834   0.003564  -0.038444  -0.000041
    18  H    0.006152  -0.000560  -0.056158  -0.003632  -0.000800   0.000047
    19  H   -0.000708   0.010885   0.251584  -0.000073  -0.000377  -0.002187
    20  H   -0.001277  -0.000197  -0.000245   0.247475   0.026809   0.000001
    21  H   -0.001320   0.000432  -0.000103   0.001706   0.247824   0.000000
             13         14         15         16         17         18
     1  C    0.391613  -0.014819   0.007270  -0.003251   0.017858   0.029494
     2  C   -0.055446   0.325236  -0.003339   0.011462   0.003353  -0.065960
     3  C   -0.019434   0.022510   0.402569   0.025087  -0.085554  -0.021953
     4  C   -0.007663   0.020026   0.022832   0.347372  -0.002425  -0.044408
     5  C    0.002361  -0.015574  -0.076955   0.025616   0.388952   0.029024
     6  C    0.057158   0.003369   0.020207  -0.094583  -0.025789   0.417040
     7  O   -0.004091  -0.038628  -0.052597  -0.000670   0.010202   0.006152
     8  O   -0.043272   0.009422  -0.038070  -0.002062   0.003691  -0.000560
     9  O   -0.002886   0.004118  -0.000568   0.003713   0.001834  -0.056158
    10  O    0.000021  -0.001771  -0.001722  -0.045808   0.003564  -0.003632
    11  O    0.000061   0.000213  -0.002665   0.003426  -0.038444  -0.000800
    12  H   -0.036821   0.001749  -0.000244  -0.000001  -0.000041   0.000047
    13  H    0.555179  -0.002505   0.000889   0.000002  -0.000030  -0.000088
    14  H   -0.002505   0.515671  -0.000011  -0.000107   0.000030  -0.007403
    15  H    0.000889  -0.000011   0.549082  -0.000162   0.000098   0.000003
    16  H    0.000002  -0.000107  -0.000162   0.583708  -0.005954  -0.003078
    17  H   -0.000030   0.000030   0.000098  -0.005954   0.553447  -0.000088
    18  H   -0.000088  -0.007403   0.000003  -0.003078  -0.000088   0.545819
    19  H    0.000236  -0.000034   0.000043  -0.002048  -0.000186   0.006214
    20  H   -0.000001   0.000020  -0.000071  -0.000105   0.000792   0.000194
    21  H    0.000000   0.000000   0.003152  -0.000202  -0.004998   0.000005
             19         20         21
     1  C    0.011192   0.000276   0.000000
     2  C   -0.050137  -0.003971  -0.001965
     3  C   -0.009291   0.005876  -0.035914
     4  C   -0.029616  -0.001642   0.011499
     5  C    0.021003  -0.041561   0.027145
     6  C    0.049079   0.018549   0.004299
     7  O   -0.000708  -0.001277  -0.001320
     8  O    0.010885  -0.000197   0.000432
     9  O    0.251584  -0.000245  -0.000103
    10  O   -0.000073   0.247475   0.001706
    11  O   -0.000377   0.026809   0.247824
    12  H   -0.002187   0.000001   0.000000
    13  H    0.000236  -0.000001   0.000000
    14  H   -0.000034   0.000020   0.000000
    15  H    0.000043  -0.000071   0.003152
    16  H   -0.002048  -0.000105  -0.000202
    17  H   -0.000186   0.000792  -0.004998
    18  H    0.006214   0.000194   0.000005
    19  H    0.341185  -0.000005   0.000006
    20  H   -0.000005   0.331435  -0.000612
    21  H    0.000006  -0.000612   0.318162
 Mulliken atomic charges:
              1
     1  C   -0.182823
     2  C    0.347349
     3  C    0.091253
     4  C    0.043345
     5  C    0.066843
     6  C   -0.070746
     7  O   -0.416622
     8  O   -0.469244
     9  O   -0.573073
    10  O   -0.628581
    11  O   -0.658908
    12  H    0.177902
    13  H    0.164716
    14  H    0.178488
    15  H    0.170257
    16  H    0.157644
    17  H    0.179689
    18  H    0.170136
    19  H    0.403232
    20  H    0.418260
    21  H    0.430885
 Sum of Mulliken atomic charges =   0.00000
 Mulliken charges with hydrogens summed into heavy atoms:
              1
     1  C    0.159795
     2  C    0.525837
     3  C    0.261510
     4  C    0.200988
     5  C    0.246533
     6  C    0.099389
     7  O   -0.416622
     8  O   -0.469244
     9  O   -0.169841
    10  O   -0.210322
    11  O   -0.228024
 Sum of Mulliken charges with hydrogens summed into heavy atoms =   0.00000
 Electronic spatial extent (au):  <R**2>=           1409.8572
 Charge=              0.0000 electrons
 Dipole moment (field-independent basis, Debye):
    X=             -0.7280    Y=             -3.4272    Z=             -2.4634  Tot=              4.2830
 Quadrupole moment (field-independent basis, Debye-Ang):
   XX=            -62.1436   YY=            -68.9174   ZZ=            -65.9770
   XY=             -6.6390   XZ=             -7.2175   YZ=              2.0990
 Traceless Quadrupole moment (field-independent basis, Debye-Ang):
   XX=              3.5357   YY=             -3.2380   ZZ=             -0.2976
   XY=             -6.6390   XZ=             -7.2175   YZ=              2.0990
 Octapole moment (field-independent basis, Debye-Ang**2):
  XXX=             -4.9188  YYY=            -31.0573  ZZZ=            -14.2527  XYY=             22.5440
  XXY=            -22.2644  XXZ=              2.3080  XZZ=             -2.5088  YZZ=              1.6397
  YYZ=              2.9495  XYZ=             -0.8459
 Hexadecapole moment (field-independent basis, Debye-Ang**3):
 XXXX=           -817.1567 YYYY=           -595.7931 ZZZZ=           -293.8158 XXXY=            -23.1697
 XXXZ=              0.6525 YYYX=            -36.4769 YYYZ=             17.0358 ZZZX=             -1.6596
 ZZZY=              2.1742 XXYY=           -240.1480 XXZZ=           -180.6299 YYZZ=           -162.3614
 XXYZ=              7.3183 YYXZ=            -38.8954 ZZXY=            -16.7378
 N-N= 7.300823345323D+02 E-N=-2.890137976632D+03  KE= 6.053395063727D+02

 Test job not archived.
 1\1\GINC-COMPUTE-10-5\SP\RB3LYP\6-31+G(d,p)\C6H10O5\ASAROTTI.IQUIR\15-
 Apr-2019\0\\# B3LYP/6-31+G** test scrf=(pcm,solvent=water,smd,dovacuum
 )\\comment\\0,1\C,0,-2.12142,-0.667774,0.05218\C,0,-1.219731,0.193761,
 0.927499\C,0,0.076427,-1.372868,0.046989\C,0,0.928216,0.994282,-0.2497
 88\C,0,1.079735,-0.481028,-0.714088\C,0,-0.526161,1.355231,0.133155\O,
 0,-0.240466,-0.80151,1.298384\O,0,-1.150683,-1.41898,-0.702144\O,0,-1.
 281958,1.790611,-0.99572\O,0,1.737069,1.247814,0.890713\O,0,2.434261,-
 0.833332,-0.442043\H,0,-2.75677,-0.112227,-0.637843\H,0,-2.736755,-1.3
 36002,0.66581\H,0,-1.695401,0.546479,1.842956\H,0,0.460217,-2.38546,0.
 212466\H,0,1.224542,1.658959,-1.0744\H,0,0.87058,-0.565691,-1.787552\H
 ,0,-0.46094,2.23345,0.779767\H,0,-1.25456,1.091353,-1.669645\H,0,2.465
 973,0.602583,0.8479\H,0,2.594925,-1.739887,-0.748657\\Version=EM64L-G0
 9RevC.01\State=1-A\HF=-610.7969981\RMSD=4.091e-09\Dipole=-0.2864203,-1
 .3483642,-0.9691718\Quadrupole=2.6286882,-2.4074094,-0.2212789,-4.9359
 671,-5.3660063,1.5605596\PG=C01 [X(C6H10O5)]\\@


 The theorems and results in mathematical physics are
 not theorems and results about Nature, but about our
 description of it.
                   --Gerard 't Hooft
 Job cpu time:  0 days  0 hours  5 minutes 12.9 seconds.
 File lengths (MBytes):  RWF=     56 Int=      0 D2E=      0 Chk=      4 Scr=      1
 Normal termination of Gaussian 09 at Mon Apr 15 18:17:14 2019.
