 Entering Gaussian System, Link 0=g09
 Input=/home/asarotti.iquir/SCF3/03_RRS_Levo06_OPTB_energy_b3lyp_smd.gjc
 Output=/home/asarotti.iquir/SCF3/03_RRS_Levo06_OPTB_energy_b3lyp_smd.log
 Initial command:
 /share/apps/Gaussian09/EM64T.SSE4.2-enabled/g09/l1.exe /tmp/Gau-38023.inp -scrdir=/tmp/
 Entering Link 1 = /share/apps/Gaussian09/EM64T.SSE4.2-enabled/g09/l1.exe PID=     38030.
  
 Copyright (c) 1988,1990,1992,1993,1995,1998,2003,2009,2011,
            Gaussian, Inc.  All Rights Reserved.
  
 This is part of the Gaussian(R) 09 program.  It is based on
 the Gaussian(R) 03 system (copyright 2003, Gaussian, Inc.),
 the Gaussian(R) 98 system (copyright 1998, Gaussian, Inc.),
 the Gaussian(R) 94 system (copyright 1995, Gaussian, Inc.),
 the Gaussian 92(TM) system (copyright 1992, Gaussian, Inc.),
 the Gaussian 90(TM) system (copyright 1990, Gaussian, Inc.),
 the Gaussian 88(TM) system (copyright 1988, Gaussian, Inc.),
 the Gaussian 86(TM) system (copyright 1986, Carnegie Mellon
 University), and the Gaussian 82(TM) system (copyright 1983,
 Carnegie Mellon University). Gaussian is a federally registered
 trademark of Gaussian, Inc.
  
 This software contains proprietary and confidential information,
 including trade secrets, belonging to Gaussian, Inc.
  
 This software is provided under written license and may be
 used, copied, transmitted, or stored only in accord with that
 written license.
  
 The following legend is applicable only to US Government
 contracts under FAR:
  
                    RESTRICTED RIGHTS LEGEND
  
 Use, reproduction and disclosure by the US Government is
 subject to restrictions as set forth in subparagraphs (a)
 and (c) of the Commercial Computer Software - Restricted
 Rights clause in FAR 52.227-19.
  
 Gaussian, Inc.
 340 Quinnipiac St., Bldg. 40, Wallingford CT 06492
  
  
 ---------------------------------------------------------------
 Warning -- This program may not be used in any manner that
 competes with the business of Gaussian, Inc. or will provide
 assistance to any competitor of Gaussian, Inc.  The licensee
 of this program is prohibited from giving any competitor of
 Gaussian, Inc. access to this program.  By using this program,
 the user acknowledges that Gaussian, Inc. is engaged in the
 business of creating and licensing software in the field of
 computational chemistry and represents and warrants to the
 licensee that it is not a competitor of Gaussian, Inc. and that
 it will not use this program in any manner prohibited above.
 ---------------------------------------------------------------
  

 Cite this work as:
 Gaussian 09, Revision C.01,
 M. J. Frisch, G. W. Trucks, H. B. Schlegel, G. E. Scuseria, 
 M. A. Robb, J. R. Cheeseman, G. Scalmani, V. Barone, B. Mennucci, 
 G. A. Petersson, H. Nakatsuji, M. Caricato, X. Li, H. P. Hratchian, 
 A. F. Izmaylov, J. Bloino, G. Zheng, J. L. Sonnenberg, M. Hada, 
 M. Ehara, K. Toyota, R. Fukuda, J. Hasegawa, M. Ishida, T. Nakajima, 
 Y. Honda, O. Kitao, H. Nakai, T. Vreven, J. A. Montgomery, Jr., 
 J. E. Peralta, F. Ogliaro, M. Bearpark, J. J. Heyd, E. Brothers, 
 K. N. Kudin, V. N. Staroverov, T. Keith, R. Kobayashi, J. Normand, 
 K. Raghavachari, A. Rendell, J. C. Burant, S. S. Iyengar, J. Tomasi, 
 M. Cossi, N. Rega, J. M. Millam, M. Klene, J. E. Knox, J. B. Cross, 
 V. Bakken, C. Adamo, J. Jaramillo, R. Gomperts, R. E. Stratmann, 
 O. Yazyev, A. J. Austin, R. Cammi, C. Pomelli, J. W. Ochterski, 
 R. L. Martin, K. Morokuma, V. G. Zakrzewski, G. A. Voth, 
 P. Salvador, J. J. Dannenberg, S. Dapprich, A. D. Daniels, 
 O. Farkas, J. B. Foresman, J. V. Ortiz, J. Cioslowski, 
 and D. J. Fox, Gaussian, Inc., Wallingford CT, 2010.
 
 ******************************************
 Gaussian 09:  EM64L-G09RevC.01 23-Sep-2011
                15-Apr-2019 
 ******************************************
 %nprocshared=4
 Will use up to    4 processors via shared memory.
 -----------------------------------------------------------
 # B3LYP/6-31+G** test scrf=(pcm,solvent=water,smd,dovacuum)
 -----------------------------------------------------------
 1/38=1/1;
 2/12=2,17=6,18=5,40=1/2;
 3/5=1,6=6,7=111,11=2,16=1,25=1,30=1,70=32101,72=1,74=-5/1,2,3;
 4//1;
 5/5=2,38=5,53=1/2;
 6/7=2,8=2,9=2,10=2,28=1/1;
 99/5=1,9=1/99;
 -------
 comment
 -------
 Charge =  0 Multiplicity = 1
 Symbolic Z-Matrix:
 6                    -1.86187   0.84191  -0.58435 
 6                    -1.03363   0.86077   0.70943 
 6                    -1.04329  -1.23644  -0.01896 
 6                     1.00601   0.09694  -0.56991 
 6                     0.448    -1.32811  -0.38126 
 6                     0.48319   1.05476   0.51046 
 8                    -1.22373  -0.49035   1.16753 
 8                    -1.72931  -0.51673  -1.04729 
 8                     0.87648   2.39858   0.24621 
 8                     2.42785  -0.00219  -0.5359 
 8                     1.12419  -2.00039   0.66903 
 1                    -1.50298   1.52874  -1.35814 
 1                    -2.9164    1.05788  -0.38275 
 1                    -1.41929   1.54688   1.46545 
 1                    -1.49657  -2.22146   0.11671 
 1                     0.68317   0.46606  -1.55496 
 1                     0.54915  -1.8818   -1.32738 
 1                     0.96074   0.79971   1.46122 
 1                     0.52762   2.65946  -0.62308 
 1                     2.76999   0.8965   -0.39001 
 1                     2.05016  -1.70229   0.60397 
 
                          Input orientation:                          
 ---------------------------------------------------------------------
 Center     Atomic      Atomic             Coordinates (Angstroms)
 Number     Number       Type             X           Y           Z
 ---------------------------------------------------------------------
      1          6           0       -1.861869    0.841909   -0.584345
      2          6           0       -1.033625    0.860766    0.709431
      3          6           0       -1.043285   -1.236439   -0.018961
      4          6           0        1.006006    0.096941   -0.569912
      5          6           0        0.448003   -1.328113   -0.381264
      6          6           0        0.483194    1.054755    0.510462
      7          8           0       -1.223730   -0.490345    1.167525
      8          8           0       -1.729308   -0.516732   -1.047293
      9          8           0        0.876479    2.398578    0.246207
     10          8           0        2.427850   -0.002187   -0.535901
     11          8           0        1.124191   -2.000388    0.669025
     12          1           0       -1.502981    1.528737   -1.358142
     13          1           0       -2.916402    1.057877   -0.382750
     14          1           0       -1.419290    1.546880    1.465452
     15          1           0       -1.496573   -2.221458    0.116714
     16          1           0        0.683172    0.466060   -1.554958
     17          1           0        0.549154   -1.881798   -1.327381
     18          1           0        0.960743    0.799709    1.461218
     19          1           0        0.527620    2.659460   -0.623080
     20          1           0        2.769989    0.896501   -0.390014
     21          1           0        2.050158   -1.702293    0.603974
 ---------------------------------------------------------------------
                    Distance matrix (angstroms):
                    1          2          3          4          5
     1  C    0.000000
     2  C    1.536294   0.000000
     3  C    2.304185   2.220116   0.000000
     4  C    2.963088   2.525914   2.506201   0.000000
     5  C    3.175806   2.859376   1.537403   1.541990   0.000000
     6  C    2.596772   1.542064   2.803569   1.535561   2.544499
     7  O    2.291543   1.439268   1.413140   2.887095   2.428023
     8  O    1.441457   2.338280   1.430410   2.843665   2.417151
     9  O    3.257543   2.495584   4.119364   2.445478   3.803359
    10  O    4.372246   3.778538   3.720132   1.425701   2.387841
    11  O    4.308845   3.583853   2.398936   2.438795   1.418552
    12  H    1.095123   2.222912   3.106594   2.994388   3.594749
    13  H    1.095136   2.185535   2.984090   4.042736   4.124581
    14  H    2.212358   1.091356   3.176748   3.482397   3.893935
    15  H    3.163723   3.172655   1.092767   3.479846   2.197140
    16  H    2.749652   2.868910   2.870269   1.100357   2.156831
    17  H    3.712642   3.765030   2.159702   2.167460   1.100880
    18  H    3.486151   2.132232   3.217601   2.149749   2.860991
    19  H    3.002441   2.729171   4.243905   2.607333   3.995692
    20  H    4.636254   3.959487   4.384994   1.945070   3.215681
    21  H    4.815498   4.011248   3.189743   2.388620   1.917708
                    6          7          8          9         10
     6  C    0.000000
     7  O    2.394296   0.000000
     8  O    3.129111   2.271943   0.000000
     9  O    1.424908   3.688574   4.118531   0.000000
    10  O    2.448201   4.058817   4.219981   2.963464   0.000000
    11  O    3.125687   2.835748   3.645468   4.426176   2.672860
    12  H    2.767893   3.245561   2.081296   2.998731   4.297818
    13  H    3.514981   2.768661   2.080914   4.071733   5.450525
    14  H    2.184866   2.068161   3.266266   2.735416   4.604944
    15  H    3.848128   2.043379   2.077298   5.195467   4.555455
    16  H    2.156968   3.458742   2.653990   2.648809   2.074038
    17  H    3.464875   3.362115   2.670813   4.572192   2.772882
    18  H    1.094093   2.553902   3.906663   2.009909   2.604597
    19  H    1.965189   4.024272   3.919423   0.972328   3.271519
    20  H    2.462790   4.505448   4.761609   2.499278   0.972616
    21  H    3.172607   3.536206   4.291457   4.280498   2.081424
                   11         12         13         14         15
    11  O    0.000000
    12  H    4.844188   0.000000
    13  H    5.175481   1.780690   0.000000
    14  H    4.436970   2.824892   2.428234   0.000000
    15  H    2.687438   4.029790   3.608243   4.003179   0.000000
    16  H    3.350218   2.438705   3.831612   3.835544   3.842984
    17  H    2.080954   3.980446   4.641562   4.840508   2.527010
    18  H    2.914589   3.814474   4.301061   2.494562   4.119896
    19  H    4.872332   2.437661   3.805800   3.064353   5.335542
    20  H    3.496024   4.426654   5.688685   4.627721   5.308671
    21  H    0.974940   5.187895   5.767051   4.830770   3.617493
                   16         17         18         19         20
    16  H    0.000000
    17  H    2.362666   0.000000
    18  H    3.047242   3.890523   0.000000
    19  H    2.388220   4.595599   2.826759   0.000000
    20  H    2.428411   3.678275   2.590328   2.861916   0.000000
    21  H    3.351327   2.452625   2.860368   4.780029   2.874004
                   21
    21  H    0.000000
 Stoichiometry    C6H10O5
 Framework group  C1[X(C6H10O5)]
 Deg. of freedom    57
 Full point group                 C1      NOp   1
 Largest Abelian subgroup         C1      NOp   1
 Largest concise Abelian subgroup C1      NOp   1
                         Standard orientation:                         
 ---------------------------------------------------------------------
 Center     Atomic      Atomic             Coordinates (Angstroms)
 Number     Number       Type             X           Y           Z
 ---------------------------------------------------------------------
      1          6           0       -1.861869    0.841908   -0.584345
      2          6           0       -1.033625    0.860766    0.709431
      3          6           0       -1.043284   -1.236439   -0.018961
      4          6           0        1.006006    0.096941   -0.569912
      5          6           0        0.448004   -1.328113   -0.381264
      6          6           0        0.483194    1.054755    0.510462
      7          8           0       -1.223730   -0.490345    1.167525
      8          8           0       -1.729308   -0.516733   -1.047293
      9          8           0        0.876478    2.398578    0.246207
     10          8           0        2.427850   -0.002186   -0.535901
     11          8           0        1.124192   -2.000388    0.669025
     12          1           0       -1.502981    1.528737   -1.358142
     13          1           0       -2.916402    1.057876   -0.382750
     14          1           0       -1.419290    1.546880    1.465452
     15          1           0       -1.496572   -2.221458    0.116714
     16          1           0        0.683172    0.466060   -1.554958
     17          1           0        0.549155   -1.881798   -1.327381
     18          1           0        0.960743    0.799709    1.461218
     19          1           0        0.527619    2.659460   -0.623080
     20          1           0        2.769989    0.896502   -0.390014
     21          1           0        2.050159   -1.702292    0.603974
 ---------------------------------------------------------------------
 Rotational constants (GHZ):      1.4744495      1.2788590      0.8818188
 Standard basis: 6-31+G(d,p) (6D, 7F)
 There are   259 symmetry adapted basis functions of A   symmetry.
 Integral buffers will be    131072 words long.
 Raffenetti 2 integral format.
 Two-electron integral symmetry is turned on.
   259 basis functions,   422 primitive gaussians,   259 cartesian basis functions
    43 alpha electrons       43 beta electrons
       nuclear repulsion energy       726.8131507600 Hartrees.
 NAtoms=   21 NActive=   21 NUniq=   21 SFac= 1.00D+00 NAtFMM=   60 NAOKFM=F Big=F
 ------------------------------------------------------------------------------
 Polarizable Continuum Model (PCM)
 =================================
 Model                : C-PCM.
 Atomic radii         : SMD-Coulomb.
 Polarization charges : Total charges.
 Charge compensation  : None.
 Solution method      : Matrix inversion.
 Cavity type          : VdW (van der Waals Surface) (Alpha=1.000).
 Cavity algorithm     : GePol (No added spheres)
                        Default sphere list used, NSphG=   21.
                        Lebedev-Laikov grids with approx.  5.0 points / Ang**2.
                        Smoothing algorithm: Karplus/York (Gamma=1.0000).
                        Polarization charges: spherical gaussians, with
                                              point-specific exponents (IZeta= 3).
                        Self-potential: point-specific (ISelfS= 7).
                        Self-field    : sphere-specific E.n sum rule (ISelfD= 2).
 Solvent              : Water, Eps=  78.355300 Eps(inf)=   1.777849
 ------------------------------------------------------------------------------
 ------------------------------------------------------------------------------
 Atomic radii for non-electrostatic terms: SMD-CDS.
 ------------------------------------------------------------------------------
 Nuclear repulsion after PCM non-electrostatic terms =      726.8179282640 Hartrees.
 One-electron integrals computed using PRISM.
 NBasis=   259 RedAO= T  NBF=   259
 NBsUse=   259 1.00D-06 NBFU=   259
 Harris functional with IExCor=  402 diagonalized for initial guess.
 ExpMin= 4.38D-02 ExpMax= 5.48D+03 ExpMxC= 8.25D+02 IAcc=2 IRadAn=         4 AccDes= 0.00D+00
 HarFok:  IExCor=  402 AccDes= 0.00D+00 IRadAn=         4 IDoV= 1
 ScaDFX=  1.000000  1.000000  1.000000  1.000000
 FoFCou: FMM=F IPFlag=           0 FMFlag=      100000 FMFlg1=           0
         NFxFlg=           0 DoJE=T BraDBF=F KetDBF=T FulRan=T
         Omega=  0.000000  0.000000  1.000000  0.000000  0.000000 ICntrl=     500 IOpCl=  0
         NMat0=    1 NMatS0=    1 NMatT0=    0 NMatD0=    1 NMtDS0=    0 NMtDT0=    0
         I1Cent=           4 NGrid=           0.
 Petite list used in FoFCou.
 Initial guess orbital symmetries:
       Occupied  (A) (A) (A) (A) (A) (A) (A) (A) (A) (A) (A) (A)
                 (A) (A) (A) (A) (A) (A) (A) (A) (A) (A) (A) (A)
                 (A) (A) (A) (A) (A) (A) (A) (A) (A) (A) (A) (A)
                 (A) (A) (A) (A) (A) (A) (A)
       Virtual   (A) (A) (A) (A) (A) (A) (A) (A) (A) (A) (A) (A)
                 (A) (A) (A) (A) (A) (A) (A) (A) (A) (A) (A) (A)
                 (A) (A) (A) (A) (A) (A) (A) (A) (A) (A) (A) (A)
                 (A) (A) (A) (A) (A) (A) (A) (A) (A) (A) (A) (A)
                 (A) (A) (A) (A) (A) (A) (A) (A) (A) (A) (A) (A)
                 (A) (A) (A) (A) (A) (A) (A) (A) (A) (A) (A) (A)
                 (A) (A) (A) (A) (A) (A) (A) (A) (A) (A) (A) (A)
                 (A) (A) (A) (A) (A) (A) (A) (A) (A) (A) (A) (A)
                 (A) (A) (A) (A) (A) (A) (A) (A) (A) (A) (A) (A)
                 (A) (A) (A) (A) (A) (A) (A) (A) (A) (A) (A) (A)
                 (A) (A) (A) (A) (A) (A) (A) (A) (A) (A) (A) (A)
                 (A) (A) (A) (A) (A) (A) (A) (A) (A) (A) (A) (A)
                 (A) (A) (A) (A) (A) (A) (A) (A) (A) (A) (A) (A)
                 (A) (A) (A) (A) (A) (A) (A) (A) (A) (A) (A) (A)
                 (A) (A) (A) (A) (A) (A) (A) (A) (A) (A) (A) (A)
                 (A) (A) (A) (A) (A) (A) (A) (A) (A) (A) (A) (A)
                 (A) (A) (A) (A) (A) (A) (A) (A) (A) (A) (A) (A)
                 (A) (A) (A) (A) (A) (A) (A) (A) (A) (A) (A) (A)
 The electronic state of the initial guess is 1-A.
 Requested convergence on RMS density matrix=1.00D-08 within 128 cycles.
 Requested convergence on MAX density matrix=1.00D-06.
 Requested convergence on             energy=1.00D-06.
 No special actions if energy rises.
 Error on total polarization charges =  0.05825
 SCF Done:  E(RB3LYP) =  -610.809627583     A.U. after   12 cycles
             Convg  =    0.5681D-08             -V/T =  2.0090
 SMD-CDS (non-electrostatic) energy       (kcal/mol) =       3.00
 (included in total energy above)

 **********************************************************************

            Population analysis using the SCF density.

 **********************************************************************

 Orbital symmetries:
       Occupied  (A) (A) (A) (A) (A) (A) (A) (A) (A) (A) (A) (A)
                 (A) (A) (A) (A) (A) (A) (A) (A) (A) (A) (A) (A)
                 (A) (A) (A) (A) (A) (A) (A) (A) (A) (A) (A) (A)
                 (A) (A) (A) (A) (A) (A) (A)
       Virtual   (A) (A) (A) (A) (A) (A) (A) (A) (A) (A) (A) (A)
                 (A) (A) (A) (A) (A) (A) (A) (A) (A) (A) (A) (A)
                 (A) (A) (A) (A) (A) (A) (A) (A) (A) (A) (A) (A)
                 (A) (A) (A) (A) (A) (A) (A) (A) (A) (A) (A) (A)
                 (A) (A) (A) (A) (A) (A) (A) (A) (A) (A) (A) (A)
                 (A) (A) (A) (A) (A) (A) (A) (A) (A) (A) (A) (A)
                 (A) (A) (A) (A) (A) (A) (A) (A) (A) (A) (A) (A)
                 (A) (A) (A) (A) (A) (A) (A) (A) (A) (A) (A) (A)
                 (A) (A) (A) (A) (A) (A) (A) (A) (A) (A) (A) (A)
                 (A) (A) (A) (A) (A) (A) (A) (A) (A) (A) (A) (A)
                 (A) (A) (A) (A) (A) (A) (A) (A) (A) (A) (A) (A)
                 (A) (A) (A) (A) (A) (A) (A) (A) (A) (A) (A) (A)
                 (A) (A) (A) (A) (A) (A) (A) (A) (A) (A) (A) (A)
                 (A) (A) (A) (A) (A) (A) (A) (A) (A) (A) (A) (A)
                 (A) (A) (A) (A) (A) (A) (A) (A) (A) (A) (A) (A)
                 (A) (A) (A) (A) (A) (A) (A) (A) (A) (A) (A) (A)
                 (A) (A) (A) (A) (A) (A) (A) (A) (A) (A) (A) (A)
                 (A) (A) (A) (A) (A) (A) (A) (A) (A) (A) (A) (A)
 The electronic state is 1-A.
 Alpha  occ. eigenvalues --  -19.18508 -19.17705 -19.17481 -19.17432 -19.16768
 Alpha  occ. eigenvalues --  -10.29577 -10.25153 -10.24754 -10.24718 -10.24664
 Alpha  occ. eigenvalues --  -10.24085  -1.11335  -1.05719  -1.03938  -1.02390
 Alpha  occ. eigenvalues --   -1.01316  -0.79342  -0.78315  -0.68266  -0.65823
 Alpha  occ. eigenvalues --   -0.62554  -0.59031  -0.55848  -0.52810  -0.51689
 Alpha  occ. eigenvalues --   -0.50964  -0.49260  -0.46961  -0.45307  -0.44385
 Alpha  occ. eigenvalues --   -0.42611  -0.42232  -0.40877  -0.39124  -0.37413
 Alpha  occ. eigenvalues --   -0.36737  -0.35196  -0.34256  -0.32397  -0.30196
 Alpha  occ. eigenvalues --   -0.29102  -0.27854  -0.26617
 Alpha virt. eigenvalues --    0.00604   0.01456   0.02198   0.02537   0.04490
 Alpha virt. eigenvalues --    0.04845   0.05293   0.05375   0.06030   0.08676
 Alpha virt. eigenvalues --    0.09004   0.09666   0.09931   0.10594   0.11390
 Alpha virt. eigenvalues --    0.12349   0.13027   0.13378   0.14205   0.14432
 Alpha virt. eigenvalues --    0.14591   0.15625   0.16290   0.16743   0.17690
 Alpha virt. eigenvalues --    0.18294   0.19127   0.19811   0.20030   0.20712
 Alpha virt. eigenvalues --    0.21334   0.21638   0.22026   0.22995   0.24033
 Alpha virt. eigenvalues --    0.24068   0.24583   0.25200   0.26441   0.27071
 Alpha virt. eigenvalues --    0.27500   0.28180   0.29146   0.29646   0.29891
 Alpha virt. eigenvalues --    0.30392   0.31352   0.31696   0.32450   0.33243
 Alpha virt. eigenvalues --    0.33312   0.35146   0.35452   0.35841   0.36123
 Alpha virt. eigenvalues --    0.37014   0.37963   0.38144   0.38994   0.39561
 Alpha virt. eigenvalues --    0.40604   0.41553   0.42989   0.43601   0.46760
 Alpha virt. eigenvalues --    0.47270   0.61606   0.64968   0.67117   0.68200
 Alpha virt. eigenvalues --    0.69851   0.71133   0.74147   0.75054   0.76627
 Alpha virt. eigenvalues --    0.77368   0.80974   0.81446   0.82826   0.84120
 Alpha virt. eigenvalues --    0.89129   0.90310   0.94804   0.96005   0.98966
 Alpha virt. eigenvalues --    1.01716   1.02674   1.03515   1.05045   1.06267
 Alpha virt. eigenvalues --    1.07658   1.08806   1.10476   1.11457   1.13317
 Alpha virt. eigenvalues --    1.17725   1.20207   1.22820   1.24055   1.25527
 Alpha virt. eigenvalues --    1.26264   1.26728   1.29657   1.31223   1.32836
 Alpha virt. eigenvalues --    1.33976   1.35530   1.35938   1.38812   1.39927
 Alpha virt. eigenvalues --    1.41207   1.43512   1.45177   1.45743   1.50285
 Alpha virt. eigenvalues --    1.51672   1.53641   1.54694   1.57573   1.59798
 Alpha virt. eigenvalues --    1.61396   1.63873   1.64861   1.65230   1.67118
 Alpha virt. eigenvalues --    1.70599   1.72363   1.74981   1.76153   1.79484
 Alpha virt. eigenvalues --    1.81056   1.82306   1.84322   1.86116   1.86895
 Alpha virt. eigenvalues --    1.90806   1.92015   1.95098   1.95841   1.97262
 Alpha virt. eigenvalues --    2.00758   2.02129   2.03486   2.05684   2.07657
 Alpha virt. eigenvalues --    2.08956   2.09754   2.12095   2.16435   2.16752
 Alpha virt. eigenvalues --    2.19198   2.20505   2.23930   2.25912   2.27052
 Alpha virt. eigenvalues --    2.32477   2.33122   2.36687   2.40938   2.41299
 Alpha virt. eigenvalues --    2.44476   2.46207   2.46584   2.49423   2.51643
 Alpha virt. eigenvalues --    2.53191   2.54514   2.58558   2.61597   2.62711
 Alpha virt. eigenvalues --    2.63164   2.66113   2.67170   2.67813   2.70069
 Alpha virt. eigenvalues --    2.72027   2.74817   2.77656   2.79026   2.80341
 Alpha virt. eigenvalues --    2.82136   2.83884   2.87564   2.87722   2.91305
 Alpha virt. eigenvalues --    2.93817   2.94714   2.96082   3.00457   3.02275
 Alpha virt. eigenvalues --    3.04019   3.08569   3.11256   3.12802   3.20925
 Alpha virt. eigenvalues --    3.33768   3.38760   3.40774   3.45369   3.48589
 Alpha virt. eigenvalues --    3.49031   3.52459   3.54195   3.57727   3.59600
 Alpha virt. eigenvalues --    4.29198   4.33774   4.37149   4.46373   4.49242
 Alpha virt. eigenvalues --    4.54090   4.59858   4.71603   4.79461   4.87837
 Alpha virt. eigenvalues --    5.00522
          Condensed to atoms (all electrons):
              1          2          3          4          5          6
     1  C    5.627209  -0.345803  -0.370403  -0.281846   0.151016   0.231932
     2  C   -0.345803   6.872197  -0.402512   0.471843   0.024628  -0.749922
     3  C   -0.370403  -0.402512   6.520141  -0.078435  -0.630432   0.176846
     4  C   -0.281846   0.471843  -0.078435   6.237134   0.000277  -0.506718
     5  C    0.151016   0.024628  -0.630432   0.000277   6.373387  -0.309269
     6  C    0.231932  -0.749922   0.176846  -0.506718  -0.309269   6.576229
     7  O   -0.021351   0.092397   0.292057  -0.057032  -0.129471  -0.046094
     8  O    0.166606  -0.137206   0.333651   0.062842  -0.222730  -0.008552
     9  O    0.029250  -0.096744  -0.013594  -0.025657   0.040512   0.154291
    10  O    0.003782  -0.019058   0.060624   0.133075  -0.137153  -0.003710
    11  O    0.024430  -0.063811  -0.179128  -0.111608   0.257335   0.079363
    12  H    0.483787  -0.147099   0.021450  -0.028900   0.000948   0.022424
    13  H    0.393285  -0.020188  -0.017251   0.004275   0.007418   0.008439
    14  H   -0.013102   0.309656   0.025361   0.010121  -0.013383   0.012248
    15  H   -0.000165   0.037616   0.341959   0.025948  -0.026666  -0.012051
    16  H    0.010183  -0.012239  -0.014834   0.335816  -0.011355  -0.006815
    17  H    0.019736  -0.029923  -0.043992  -0.020895   0.330735   0.041086
    18  H    0.019091  -0.053822  -0.033267  -0.169355   0.062047   0.493115
    19  H    0.013579  -0.029067  -0.006657  -0.061161   0.012098   0.064929
    20  H   -0.002095   0.018101  -0.011240   0.036387   0.028882  -0.069670
    21  H   -0.001037  -0.004273   0.039843  -0.040315   0.001180  -0.007693
              7          8          9         10         11         12
     1  C   -0.021351   0.166606   0.029250   0.003782   0.024430   0.483787
     2  C    0.092397  -0.137206  -0.096744  -0.019058  -0.063811  -0.147099
     3  C    0.292057   0.333651  -0.013594   0.060624  -0.179128   0.021450
     4  C   -0.057032   0.062842  -0.025657   0.133075  -0.111608  -0.028900
     5  C   -0.129471  -0.222730   0.040512  -0.137153   0.257335   0.000948
     6  C   -0.046094  -0.008552   0.154291  -0.003710   0.079363   0.022424
     7  O    8.357301  -0.051981   0.008991  -0.002307   0.024844   0.010436
     8  O   -0.051981   8.410858  -0.003168  -0.002526   0.011335  -0.043026
     9  O    0.008991  -0.003168   8.320371  -0.018973  -0.003264   0.004938
    10  O   -0.002307  -0.002526  -0.018973   8.411697  -0.008515   0.000061
    11  O    0.024844   0.011335  -0.003264  -0.008515   8.364922   0.000062
    12  H    0.010436  -0.043026   0.004938   0.000061   0.000062   0.532791
    13  H    0.000455  -0.050917  -0.001068   0.000001   0.000056  -0.039323
    14  H   -0.030711   0.007260   0.001693  -0.000570   0.000340   0.002355
    15  H   -0.049358  -0.038932  -0.000065  -0.000838   0.005551  -0.000258
    16  H   -0.000240   0.000984  -0.013915  -0.037583   0.005462   0.000893
    17  H    0.008229   0.003063  -0.000508   0.001886  -0.040237   0.000035
    18  H    0.002834  -0.000222  -0.059878   0.007113   0.003303   0.000166
    19  H   -0.000087  -0.000189   0.252898  -0.000471   0.000076   0.000724
    20  H    0.000082   0.000175   0.017566   0.237114  -0.001164  -0.000012
    21  H   -0.002760  -0.000822   0.000027   0.024122   0.244327   0.000000
             13         14         15         16         17         18
     1  C    0.393285  -0.013102  -0.000165   0.010183   0.019736   0.019091
     2  C   -0.020188   0.309656   0.037616  -0.012239  -0.029923  -0.053822
     3  C   -0.017251   0.025361   0.341959  -0.014834  -0.043992  -0.033267
     4  C    0.004275   0.010121   0.025948   0.335816  -0.020895  -0.169355
     5  C    0.007418  -0.013383  -0.026666  -0.011355   0.330735   0.062047
     6  C    0.008439   0.012248  -0.012051  -0.006815   0.041086   0.493115
     7  O    0.000455  -0.030711  -0.049358  -0.000240   0.008229   0.002834
     8  O   -0.050917   0.007260  -0.038932   0.000984   0.003063  -0.000222
     9  O   -0.001068   0.001693  -0.000065  -0.013915  -0.000508  -0.059878
    10  O    0.000001  -0.000570  -0.000838  -0.037583   0.001886   0.007113
    11  O    0.000056   0.000340   0.005551   0.005462  -0.040237   0.003303
    12  H   -0.039323   0.002355  -0.000258   0.000893   0.000035   0.000166
    13  H    0.551015  -0.003531   0.000355   0.000009  -0.000009  -0.000135
    14  H   -0.003531   0.517252  -0.000067  -0.000204   0.000020  -0.005968
    15  H    0.000355  -0.000067   0.549132  -0.000216  -0.003462  -0.000077
    16  H    0.000009  -0.000204  -0.000216   0.561709  -0.004584   0.004643
    17  H   -0.000009   0.000020  -0.003462  -0.004584   0.579390  -0.000154
    18  H   -0.000135  -0.005968  -0.000077   0.004643  -0.000154   0.545744
    19  H   -0.000106  -0.000542   0.000000   0.005095  -0.000015   0.006537
    20  H    0.000000  -0.000002   0.000005  -0.003473  -0.000203  -0.001882
    21  H    0.000000  -0.000003  -0.000181   0.000593  -0.002612   0.000398
             19         20         21
     1  C    0.013579  -0.002095  -0.001037
     2  C   -0.029067   0.018101  -0.004273
     3  C   -0.006657  -0.011240   0.039843
     4  C   -0.061161   0.036387  -0.040315
     5  C    0.012098   0.028882   0.001180
     6  C    0.064929  -0.069670  -0.007693
     7  O   -0.000087   0.000082  -0.002760
     8  O   -0.000189   0.000175  -0.000822
     9  O    0.252898   0.017566   0.000027
    10  O   -0.000471   0.237114   0.024122
    11  O    0.000076  -0.001164   0.244327
    12  H    0.000724  -0.000012   0.000000
    13  H   -0.000106   0.000000   0.000000
    14  H   -0.000542  -0.000002  -0.000003
    15  H    0.000000   0.000005  -0.000181
    16  H    0.005095  -0.003473   0.000593
    17  H   -0.000015  -0.000203  -0.002612
    18  H    0.006537  -0.001882   0.000398
    19  H    0.339300  -0.000709   0.000001
    20  H   -0.000709   0.340267  -0.000915
    21  H    0.000001  -0.000915   0.340104
 Mulliken atomic charges:
              1
     1  C   -0.138083
     2  C    0.285227
     3  C   -0.010188
     4  C    0.064204
     5  C    0.189997
     6  C   -0.140409
     7  O   -0.406236
     8  O   -0.436503
     9  O   -0.593702
    10  O   -0.647772
    11  O   -0.613680
    12  H    0.177545
    13  H    0.167221
    14  H    0.181779
    15  H    0.171771
    16  H    0.180074
    17  H    0.162414
    18  H    0.179770
    19  H    0.403767
    20  H    0.412786
    21  H    0.410017
 Sum of Mulliken atomic charges =   0.00000
 Mulliken charges with hydrogens summed into heavy atoms:
              1
     1  C    0.206683
     2  C    0.467006
     3  C    0.161583
     4  C    0.244278
     5  C    0.352411
     6  C    0.039361
     7  O   -0.406236
     8  O   -0.436503
     9  O   -0.189935
    10  O   -0.234986
    11  O   -0.203662
 Sum of Mulliken charges with hydrogens summed into heavy atoms =   0.00000
 Electronic spatial extent (au):  <R**2>=           1437.2190
 Charge=              0.0000 electrons
 Dipole moment (field-independent basis, Debye):
    X=             -0.3249    Y=              4.4559    Z=             -2.7580  Tot=              5.2504
 Quadrupole moment (field-independent basis, Debye-Ang):
   XX=            -65.5138   YY=            -66.2902   ZZ=            -68.7543
   XY=             -2.3429   XZ=             -0.8241   YZ=             -1.9481
 Traceless Quadrupole moment (field-independent basis, Debye-Ang):
   XX=              1.3390   YY=              0.5625   ZZ=             -1.9015
   XY=             -2.3429   XZ=             -0.8241   YZ=             -1.9481
 Octapole moment (field-independent basis, Debye-Ang**2):
  XXX=             11.7208  YYY=              4.5849  ZZZ=             -1.7511  XYY=            -13.4571
  XXY=             13.1857  XXZ=              9.3768  XZZ=              7.9423  YZZ=             13.1064
  YYZ=            -22.9163  XYZ=             -2.6332
 Hexadecapole moment (field-independent basis, Debye-Ang**3):
 XXXX=           -779.9983 YYYY=           -737.8442 ZZZZ=           -278.6495 XXXY=             -0.2714
 XXXZ=             12.4701 YYYX=              4.5466 YYYZ=            -28.2635 ZZZX=             -0.8276
 ZZZY=              0.9176 XXYY=           -233.0230 XXZZ=           -197.8347 YYZZ=           -156.8736
 XXYZ=            -16.4904 YYXZ=            -18.1220 ZZXY=             -7.5681
 N-N= 7.268179282640D+02 E-N=-2.883285009068D+03  KE= 6.053470816959D+02

 Test job not archived.
 1\1\GINC-COMPUTE-8-11\SP\RB3LYP\6-31+G(d,p)\C6H10O5\ASAROTTI.IQUIR\15-
 Apr-2019\0\\# B3LYP/6-31+G** test scrf=(pcm,solvent=water,smd,dovacuum
 )\\comment\\0,1\C,0,-1.861869,0.841909,-0.584345\C,0,-1.033625,0.86076
 6,0.709431\C,0,-1.043285,-1.236439,-0.018961\C,0,1.006006,0.096941,-0.
 569912\C,0,0.448003,-1.328113,-0.381264\C,0,0.483194,1.054755,0.510462
 \O,0,-1.22373,-0.490345,1.167525\O,0,-1.729308,-0.516732,-1.047293\O,0
 ,0.876479,2.398578,0.246207\O,0,2.42785,-0.002187,-0.535901\O,0,1.1241
 91,-2.000388,0.669025\H,0,-1.502981,1.528737,-1.358142\H,0,-2.916402,1
 .057877,-0.38275\H,0,-1.41929,1.54688,1.465452\H,0,-1.496573,-2.221458
 ,0.116714\H,0,0.683172,0.46606,-1.554958\H,0,0.549154,-1.881798,-1.327
 381\H,0,0.960743,0.799709,1.461218\H,0,0.52762,2.65946,-0.62308\H,0,2.
 769989,0.896501,-0.390014\H,0,2.050158,-1.702293,0.603974\\Version=EM6
 4L-G09RevC.01\State=1-A\HF=-610.8096276\RMSD=5.681e-09\Dipole=-0.12782
 66,1.7530742,-1.0850769\Quadrupole=0.9954989,0.41824,-1.4137389,-1.741
 8777,-0.612719,-1.4483469\PG=C01 [X(C6H10O5)]\\@


 IN THE UNIVERSE THE DIFFICULT THINGS ARE DONE AS IF THEY WERE EASY.

                                                          -- LAO-TSU
 Job cpu time:  0 days  0 hours 11 minutes  8.9 seconds.
 File lengths (MBytes):  RWF=     56 Int=      0 D2E=      0 Chk=      4 Scr=      1
 Normal termination of Gaussian 09 at Mon Apr 15 18:30:35 2019.
