 Entering Gaussian System, Link 0=g09
 Input=/home/asarotti.iquir/SCF3/03_RRS_Levo14_OPTB_energy_b3lyp_smd.gjc
 Output=/home/asarotti.iquir/SCF3/03_RRS_Levo14_OPTB_energy_b3lyp_smd.log
 Initial command:
 /share/apps/Gaussian09/EM64T.SSE4.2-enabled/g09/l1.exe /tmp/Gau-8074.inp -scrdir=/tmp/
 Entering Link 1 = /share/apps/Gaussian09/EM64T.SSE4.2-enabled/g09/l1.exe PID=      8075.
  
 Copyright (c) 1988,1990,1992,1993,1995,1998,2003,2009,2011,
            Gaussian, Inc.  All Rights Reserved.
  
 This is part of the Gaussian(R) 09 program.  It is based on
 the Gaussian(R) 03 system (copyright 2003, Gaussian, Inc.),
 the Gaussian(R) 98 system (copyright 1998, Gaussian, Inc.),
 the Gaussian(R) 94 system (copyright 1995, Gaussian, Inc.),
 the Gaussian 92(TM) system (copyright 1992, Gaussian, Inc.),
 the Gaussian 90(TM) system (copyright 1990, Gaussian, Inc.),
 the Gaussian 88(TM) system (copyright 1988, Gaussian, Inc.),
 the Gaussian 86(TM) system (copyright 1986, Carnegie Mellon
 University), and the Gaussian 82(TM) system (copyright 1983,
 Carnegie Mellon University). Gaussian is a federally registered
 trademark of Gaussian, Inc.
  
 This software contains proprietary and confidential information,
 including trade secrets, belonging to Gaussian, Inc.
  
 This software is provided under written license and may be
 used, copied, transmitted, or stored only in accord with that
 written license.
  
 The following legend is applicable only to US Government
 contracts under FAR:
  
                    RESTRICTED RIGHTS LEGEND
  
 Use, reproduction and disclosure by the US Government is
 subject to restrictions as set forth in subparagraphs (a)
 and (c) of the Commercial Computer Software - Restricted
 Rights clause in FAR 52.227-19.
  
 Gaussian, Inc.
 340 Quinnipiac St., Bldg. 40, Wallingford CT 06492
  
  
 ---------------------------------------------------------------
 Warning -- This program may not be used in any manner that
 competes with the business of Gaussian, Inc. or will provide
 assistance to any competitor of Gaussian, Inc.  The licensee
 of this program is prohibited from giving any competitor of
 Gaussian, Inc. access to this program.  By using this program,
 the user acknowledges that Gaussian, Inc. is engaged in the
 business of creating and licensing software in the field of
 computational chemistry and represents and warrants to the
 licensee that it is not a competitor of Gaussian, Inc. and that
 it will not use this program in any manner prohibited above.
 ---------------------------------------------------------------
  

 Cite this work as:
 Gaussian 09, Revision C.01,
 M. J. Frisch, G. W. Trucks, H. B. Schlegel, G. E. Scuseria, 
 M. A. Robb, J. R. Cheeseman, G. Scalmani, V. Barone, B. Mennucci, 
 G. A. Petersson, H. Nakatsuji, M. Caricato, X. Li, H. P. Hratchian, 
 A. F. Izmaylov, J. Bloino, G. Zheng, J. L. Sonnenberg, M. Hada, 
 M. Ehara, K. Toyota, R. Fukuda, J. Hasegawa, M. Ishida, T. Nakajima, 
 Y. Honda, O. Kitao, H. Nakai, T. Vreven, J. A. Montgomery, Jr., 
 J. E. Peralta, F. Ogliaro, M. Bearpark, J. J. Heyd, E. Brothers, 
 K. N. Kudin, V. N. Staroverov, T. Keith, R. Kobayashi, J. Normand, 
 K. Raghavachari, A. Rendell, J. C. Burant, S. S. Iyengar, J. Tomasi, 
 M. Cossi, N. Rega, J. M. Millam, M. Klene, J. E. Knox, J. B. Cross, 
 V. Bakken, C. Adamo, J. Jaramillo, R. Gomperts, R. E. Stratmann, 
 O. Yazyev, A. J. Austin, R. Cammi, C. Pomelli, J. W. Ochterski, 
 R. L. Martin, K. Morokuma, V. G. Zakrzewski, G. A. Voth, 
 P. Salvador, J. J. Dannenberg, S. Dapprich, A. D. Daniels, 
 O. Farkas, J. B. Foresman, J. V. Ortiz, J. Cioslowski, 
 and D. J. Fox, Gaussian, Inc., Wallingford CT, 2010.
 
 ******************************************
 Gaussian 09:  EM64L-G09RevC.01 23-Sep-2011
                15-Apr-2019 
 ******************************************
 %nprocshared=4
 Will use up to    4 processors via shared memory.
 -----------------------------------------------------------
 # B3LYP/6-31+G** test scrf=(pcm,solvent=water,smd,dovacuum)
 -----------------------------------------------------------
 1/38=1/1;
 2/12=2,17=6,18=5,40=1/2;
 3/5=1,6=6,7=111,11=2,16=1,25=1,30=1,70=32101,72=1,74=-5/1,2,3;
 4//1;
 5/5=2,38=5,53=1/2;
 6/7=2,8=2,9=2,10=2,28=1/1;
 99/5=1,9=1/99;
 -------
 comment
 -------
 Charge =  0 Multiplicity = 1
 Symbolic Z-Matrix:
 6                    -2.07976  -0.68822  -0.0602 
 6                    -1.24326   0.20524   0.85913 
 6                     0.11161  -1.38466   0.08598 
 6                     0.93143   0.9818   -0.21247 
 6                     1.04566  -0.46583  -0.74845 
 6                    -0.51665   1.38669   0.12955 
 8                    -0.24292  -0.74159   1.31288 
 8                    -1.11533  -1.61153  -0.59565 
 8                    -1.14835   1.78012  -1.08498 
 8                     1.77275   1.10716   0.9434 
 8                     2.39743  -0.89214  -0.69033 
 1                    -2.55629  -0.14233  -0.87548 
 1                    -2.83424  -1.23858   0.51258 
 1                    -1.79248   0.54725   1.737 
 1                     0.59659  -2.33633   0.31776 
 1                     1.32741   1.68823  -0.94545 
 1                     0.72497  -0.51926  -1.79317 
 1                    -0.45118   2.23978   0.81563 
 1                    -1.95746   2.26814  -0.86265 
 1                     1.36072   0.5463    1.62777 
 1                     2.77924  -0.3994    0.06227 
 
                          Input orientation:                          
 ---------------------------------------------------------------------
 Center     Atomic      Atomic             Coordinates (Angstroms)
 Number     Number       Type             X           Y           Z
 ---------------------------------------------------------------------
      1          6           0       -2.079764   -0.688223   -0.060198
      2          6           0       -1.243261    0.205239    0.859134
      3          6           0        0.111613   -1.384659    0.085975
      4          6           0        0.931427    0.981800   -0.212472
      5          6           0        1.045661   -0.465829   -0.748448
      6          6           0       -0.516653    1.386691    0.129546
      7          8           0       -0.242921   -0.741592    1.312877
      8          8           0       -1.115334   -1.611528   -0.595652
      9          8           0       -1.148348    1.780119   -1.084976
     10          8           0        1.772746    1.107155    0.943395
     11          8           0        2.397429   -0.892144   -0.690329
     12          1           0       -2.556290   -0.142332   -0.875479
     13          1           0       -2.834243   -1.238576    0.512581
     14          1           0       -1.792481    0.547252    1.737000
     15          1           0        0.596589   -2.336330    0.317759
     16          1           0        1.327414    1.688229   -0.945454
     17          1           0        0.724972   -0.519263   -1.793174
     18          1           0       -0.451179    2.239781    0.815632
     19          1           0       -1.957457    2.268141   -0.862648
     20          1           0        1.360723    0.546304    1.627771
     21          1           0        2.779237   -0.399402    0.062268
 ---------------------------------------------------------------------
                    Distance matrix (angstroms):
                    1          2          3          4          5
     1  C    0.000000
     2  C    1.530746   0.000000
     3  C    2.304023   2.227383   0.000000
     4  C    3.446656   2.545713   2.522161   0.000000
     5  C    3.208026   2.876424   1.553369   1.547885   0.000000
     6  C    2.604724   1.567191   2.842006   1.542027   2.577504
     7  O    2.293943   1.450190   1.429866   2.583769   2.446538
     8  O    1.438516   2.330968   1.421789   3.325869   2.450688
     9  O    2.830268   2.503761   3.602006   2.392497   3.157722
    10  O    4.367198   3.149103   3.115071   1.435117   2.421831
    11  O    4.525915   4.106058   2.463772   2.426762   1.418591
    12  H    1.090760   2.203119   3.096042   3.723899   3.618679
    13  H    1.095538   2.176218   2.980168   4.431257   4.152227
    14  H    2.199739   1.090534   3.175490   3.377713   3.906256
    15  H    3.165750   3.183977   1.092979   3.376870   2.199372
    16  H    4.247360   3.473351   3.461887   1.092296   2.181321
    17  H    3.301257   3.381358   2.157851   2.189619   1.094143
    18  H    3.463030   2.183723   3.739746   2.133334   3.465141
    19  H    3.065774   2.780319   4.303938   3.228475   4.062801
    20  H    4.026195   2.736396   2.768759   1.939187   2.601940
    21  H    4.869118   4.145006   2.843855   2.323274   1.914930
                    6          7          8          9         10
     6  C    0.000000
     7  O    2.450467   0.000000
     8  O    3.142236   2.271646   0.000000
     9  O    1.424390   3.595626   3.426922   0.000000
    10  O    2.445780   2.759945   4.254516   3.619387   0.000000
    11  O    3.789084   3.317672   3.586918   4.457496   2.656403
    12  H    2.740092   3.240323   2.076823   2.392072   4.859020
    13  H    3.522778   2.757248   2.078923   3.808799   5.187716
    14  H    2.217274   2.059644   3.249635   3.146175   3.695151
    15  H    3.890452   2.058695   2.071313   4.685896   3.692202
    16  H    2.155721   3.670155   4.120410   2.481392   2.025764
    17  H    2.978447   3.260951   2.452311   3.049267   3.351399
    18  H    1.096706   3.029721   4.155166   2.075968   2.499001
    19  H    1.958908   4.090359   3.978981   0.970697   4.303963
    20  H    2.544694   2.080747   3.966196   3.895733   0.976057
    21  H    3.749339   3.288549   4.131560   4.635990   2.014727
                   11         12         13         14         15
    11  O    0.000000
    12  H    5.013565   0.000000
    13  H    5.379349   1.790452   0.000000
    14  H    5.051647   2.807842   2.402842   0.000000
    15  H    2.518916   4.022200   3.607441   4.004616   0.000000
    16  H    2.805057   4.294066   5.292584   4.269793   4.280991
    17  H    2.037749   3.427962   4.301387   4.465104   2.788235
    18  H    4.493489   3.600807   4.227269   2.347906   4.720857
    19  H    5.383505   2.483776   3.867437   3.121994   5.396079
    20  H    2.918472   4.699305   4.693313   3.155095   3.257240
    21  H    0.977228   5.423403   5.693694   4.959989   2.929320
                   16         17         18         19         20
    16  H    0.000000
    17  H    2.440202   0.000000
    18  H    2.563011   3.975113   0.000000
    19  H    3.336695   3.978809   2.255283   0.000000
    20  H    2.815420   3.639021   2.609679   4.491907   0.000000
    21  H    2.735233   2.770747   4.238919   5.514302   2.314593
                   21
    21  H    0.000000
 Stoichiometry    C6H10O5
 Framework group  C1[X(C6H10O5)]
 Deg. of freedom    57
 Full point group                 C1      NOp   1
 Largest Abelian subgroup         C1      NOp   1
 Largest concise Abelian subgroup C1      NOp   1
                         Standard orientation:                         
 ---------------------------------------------------------------------
 Center     Atomic      Atomic             Coordinates (Angstroms)
 Number     Number       Type             X           Y           Z
 ---------------------------------------------------------------------
      1          6           0       -2.079764   -0.688222   -0.060198
      2          6           0       -1.243261    0.205239    0.859134
      3          6           0        0.111613   -1.384659    0.085975
      4          6           0        0.931427    0.981800   -0.212472
      5          6           0        1.045661   -0.465829   -0.748448
      6          6           0       -0.516653    1.386691    0.129546
      7          8           0       -0.242921   -0.741592    1.312877
      8          8           0       -1.115334   -1.611528   -0.595652
      9          8           0       -1.148348    1.780119   -1.084976
     10          8           0        1.772746    1.107155    0.943395
     11          8           0        2.397429   -0.892145   -0.690329
     12          1           0       -2.556290   -0.142331   -0.875479
     13          1           0       -2.834243   -1.238575    0.512581
     14          1           0       -1.792481    0.547252    1.737000
     15          1           0        0.596588   -2.336330    0.317759
     16          1           0        1.327414    1.688229   -0.945454
     17          1           0        0.724972   -0.519263   -1.793174
     18          1           0       -0.451178    2.239781    0.815632
     19          1           0       -1.957456    2.268141   -0.862648
     20          1           0        1.360723    0.546304    1.627771
     21          1           0        2.779237   -0.399403    0.062268
 ---------------------------------------------------------------------
 Rotational constants (GHZ):      1.5612378      1.2073396      0.9416360
 Standard basis: 6-31+G(d,p) (6D, 7F)
 There are   259 symmetry adapted basis functions of A   symmetry.
 Integral buffers will be    131072 words long.
 Raffenetti 2 integral format.
 Two-electron integral symmetry is turned on.
   259 basis functions,   422 primitive gaussians,   259 cartesian basis functions
    43 alpha electrons       43 beta electrons
       nuclear repulsion energy       729.7507787268 Hartrees.
 NAtoms=   21 NActive=   21 NUniq=   21 SFac= 1.00D+00 NAtFMM=   60 NAOKFM=F Big=F
 ------------------------------------------------------------------------------
 Polarizable Continuum Model (PCM)
 =================================
 Model                : C-PCM.
 Atomic radii         : SMD-Coulomb.
 Polarization charges : Total charges.
 Charge compensation  : None.
 Solution method      : Matrix inversion.
 Cavity type          : VdW (van der Waals Surface) (Alpha=1.000).
 Cavity algorithm     : GePol (No added spheres)
                        Default sphere list used, NSphG=   21.
                        Lebedev-Laikov grids with approx.  5.0 points / Ang**2.
                        Smoothing algorithm: Karplus/York (Gamma=1.0000).
                        Polarization charges: spherical gaussians, with
                                              point-specific exponents (IZeta= 3).
                        Self-potential: point-specific (ISelfS= 7).
                        Self-field    : sphere-specific E.n sum rule (ISelfD= 2).
 Solvent              : Water, Eps=  78.355300 Eps(inf)=   1.777849
 ------------------------------------------------------------------------------
 ------------------------------------------------------------------------------
 Atomic radii for non-electrostatic terms: SMD-CDS.
 ------------------------------------------------------------------------------
 Nuclear repulsion after PCM non-electrostatic terms =      729.7556656749 Hartrees.
 One-electron integrals computed using PRISM.
 NBasis=   259 RedAO= T  NBF=   259
 NBsUse=   259 1.00D-06 NBFU=   259
 Harris functional with IExCor=  402 diagonalized for initial guess.
 ExpMin= 4.38D-02 ExpMax= 5.48D+03 ExpMxC= 8.25D+02 IAcc=2 IRadAn=         4 AccDes= 0.00D+00
 HarFok:  IExCor=  402 AccDes= 0.00D+00 IRadAn=         4 IDoV= 1
 ScaDFX=  1.000000  1.000000  1.000000  1.000000
 FoFCou: FMM=F IPFlag=           0 FMFlag=      100000 FMFlg1=           0
         NFxFlg=           0 DoJE=T BraDBF=F KetDBF=T FulRan=T
         Omega=  0.000000  0.000000  1.000000  0.000000  0.000000 ICntrl=     500 IOpCl=  0
         NMat0=    1 NMatS0=    1 NMatT0=    0 NMatD0=    1 NMtDS0=    0 NMtDT0=    0
         I1Cent=           4 NGrid=           0.
 Petite list used in FoFCou.
 Initial guess orbital symmetries:
       Occupied  (A) (A) (A) (A) (A) (A) (A) (A) (A) (A) (A) (A)
                 (A) (A) (A) (A) (A) (A) (A) (A) (A) (A) (A) (A)
                 (A) (A) (A) (A) (A) (A) (A) (A) (A) (A) (A) (A)
                 (A) (A) (A) (A) (A) (A) (A)
       Virtual   (A) (A) (A) (A) (A) (A) (A) (A) (A) (A) (A) (A)
                 (A) (A) (A) (A) (A) (A) (A) (A) (A) (A) (A) (A)
                 (A) (A) (A) (A) (A) (A) (A) (A) (A) (A) (A) (A)
                 (A) (A) (A) (A) (A) (A) (A) (A) (A) (A) (A) (A)
                 (A) (A) (A) (A) (A) (A) (A) (A) (A) (A) (A) (A)
                 (A) (A) (A) (A) (A) (A) (A) (A) (A) (A) (A) (A)
                 (A) (A) (A) (A) (A) (A) (A) (A) (A) (A) (A) (A)
                 (A) (A) (A) (A) (A) (A) (A) (A) (A) (A) (A) (A)
                 (A) (A) (A) (A) (A) (A) (A) (A) (A) (A) (A) (A)
                 (A) (A) (A) (A) (A) (A) (A) (A) (A) (A) (A) (A)
                 (A) (A) (A) (A) (A) (A) (A) (A) (A) (A) (A) (A)
                 (A) (A) (A) (A) (A) (A) (A) (A) (A) (A) (A) (A)
                 (A) (A) (A) (A) (A) (A) (A) (A) (A) (A) (A) (A)
                 (A) (A) (A) (A) (A) (A) (A) (A) (A) (A) (A) (A)
                 (A) (A) (A) (A) (A) (A) (A) (A) (A) (A) (A) (A)
                 (A) (A) (A) (A) (A) (A) (A) (A) (A) (A) (A) (A)
                 (A) (A) (A) (A) (A) (A) (A) (A) (A) (A) (A) (A)
                 (A) (A) (A) (A) (A) (A) (A) (A) (A) (A) (A) (A)
 The electronic state of the initial guess is 1-A.
 Requested convergence on RMS density matrix=1.00D-08 within 128 cycles.
 Requested convergence on MAX density matrix=1.00D-06.
 Requested convergence on             energy=1.00D-06.
 No special actions if energy rises.
 Error on total polarization charges =  0.05756
 SCF Done:  E(RB3LYP) =  -610.800896926     A.U. after   12 cycles
             Convg  =    0.4489D-08             -V/T =  2.0090
 SMD-CDS (non-electrostatic) energy       (kcal/mol) =       3.07
 (included in total energy above)

 **********************************************************************

            Population analysis using the SCF density.

 **********************************************************************

 Orbital symmetries:
       Occupied  (A) (A) (A) (A) (A) (A) (A) (A) (A) (A) (A) (A)
                 (A) (A) (A) (A) (A) (A) (A) (A) (A) (A) (A) (A)
                 (A) (A) (A) (A) (A) (A) (A) (A) (A) (A) (A) (A)
                 (A) (A) (A) (A) (A) (A) (A)
       Virtual   (A) (A) (A) (A) (A) (A) (A) (A) (A) (A) (A) (A)
                 (A) (A) (A) (A) (A) (A) (A) (A) (A) (A) (A) (A)
                 (A) (A) (A) (A) (A) (A) (A) (A) (A) (A) (A) (A)
                 (A) (A) (A) (A) (A) (A) (A) (A) (A) (A) (A) (A)
                 (A) (A) (A) (A) (A) (A) (A) (A) (A) (A) (A) (A)
                 (A) (A) (A) (A) (A) (A) (A) (A) (A) (A) (A) (A)
                 (A) (A) (A) (A) (A) (A) (A) (A) (A) (A) (A) (A)
                 (A) (A) (A) (A) (A) (A) (A) (A) (A) (A) (A) (A)
                 (A) (A) (A) (A) (A) (A) (A) (A) (A) (A) (A) (A)
                 (A) (A) (A) (A) (A) (A) (A) (A) (A) (A) (A) (A)
                 (A) (A) (A) (A) (A) (A) (A) (A) (A) (A) (A) (A)
                 (A) (A) (A) (A) (A) (A) (A) (A) (A) (A) (A) (A)
                 (A) (A) (A) (A) (A) (A) (A) (A) (A) (A) (A) (A)
                 (A) (A) (A) (A) (A) (A) (A) (A) (A) (A) (A) (A)
                 (A) (A) (A) (A) (A) (A) (A) (A) (A) (A) (A) (A)
                 (A) (A) (A) (A) (A) (A) (A) (A) (A) (A) (A) (A)
                 (A) (A) (A) (A) (A) (A) (A) (A) (A) (A) (A) (A)
                 (A) (A) (A) (A) (A) (A) (A) (A) (A) (A) (A) (A)
 The electronic state is 1-A.
 Alpha  occ. eigenvalues --  -19.18741 -19.17488 -19.17320 -19.17133 -19.16646
 Alpha  occ. eigenvalues --  -10.29224 -10.25076 -10.25048 -10.24896 -10.24324
 Alpha  occ. eigenvalues --  -10.23698  -1.11089  -1.05478  -1.03850  -1.02341
 Alpha  occ. eigenvalues --   -1.01063  -0.78784  -0.77691  -0.68042  -0.66069
 Alpha  occ. eigenvalues --   -0.61935  -0.58923  -0.55572  -0.54070  -0.51318
 Alpha  occ. eigenvalues --   -0.49143  -0.48585  -0.47309  -0.46561  -0.44117
 Alpha  occ. eigenvalues --   -0.42252  -0.41712  -0.40334  -0.39032  -0.37056
 Alpha  occ. eigenvalues --   -0.36143  -0.34917  -0.34097  -0.32693  -0.30589
 Alpha  occ. eigenvalues --   -0.29849  -0.27745  -0.25879
 Alpha virt. eigenvalues --    0.00612   0.00912   0.02497   0.03023   0.04149
 Alpha virt. eigenvalues --    0.04558   0.05196   0.05526   0.05626   0.08388
 Alpha virt. eigenvalues --    0.08844   0.09303   0.10110   0.10654   0.11229
 Alpha virt. eigenvalues --    0.12370   0.12699   0.13378   0.14019   0.14556
 Alpha virt. eigenvalues --    0.15011   0.15435   0.16116   0.17221   0.17590
 Alpha virt. eigenvalues --    0.18381   0.19208   0.19556   0.19913   0.20252
 Alpha virt. eigenvalues --    0.21294   0.21610   0.22146   0.22522   0.23937
 Alpha virt. eigenvalues --    0.24227   0.25358   0.25711   0.26081   0.26665
 Alpha virt. eigenvalues --    0.27500   0.28416   0.28997   0.29604   0.30121
 Alpha virt. eigenvalues --    0.30233   0.30999   0.31948   0.32478   0.33318
 Alpha virt. eigenvalues --    0.33595   0.35092   0.35189   0.35926   0.36840
 Alpha virt. eigenvalues --    0.36880   0.37852   0.37959   0.39731   0.40360
 Alpha virt. eigenvalues --    0.42581   0.42803   0.43811   0.44859   0.48205
 Alpha virt. eigenvalues --    0.49740   0.65303   0.65654   0.67110   0.69411
 Alpha virt. eigenvalues --    0.71424   0.72301   0.73571   0.75259   0.77980
 Alpha virt. eigenvalues --    0.78764   0.80589   0.82292   0.83717   0.84771
 Alpha virt. eigenvalues --    0.85054   0.91550   0.92306   0.94687   0.98157
 Alpha virt. eigenvalues --    1.01082   1.01532   1.03812   1.05245   1.05650
 Alpha virt. eigenvalues --    1.07431   1.07880   1.09501   1.10205   1.14357
 Alpha virt. eigenvalues --    1.19006   1.20424   1.22529   1.24318   1.26561
 Alpha virt. eigenvalues --    1.27118   1.29304   1.29442   1.30533   1.32214
 Alpha virt. eigenvalues --    1.33832   1.34466   1.35725   1.39300   1.40870
 Alpha virt. eigenvalues --    1.42819   1.44638   1.45954   1.47301   1.50666
 Alpha virt. eigenvalues --    1.52298   1.53927   1.56231   1.57556   1.59617
 Alpha virt. eigenvalues --    1.62001   1.63948   1.67280   1.68390   1.68592
 Alpha virt. eigenvalues --    1.70059   1.71357   1.75678   1.77318   1.77580
 Alpha virt. eigenvalues --    1.79086   1.82560   1.83069   1.84965   1.86906
 Alpha virt. eigenvalues --    1.89344   1.94091   1.95062   1.95246   1.96427
 Alpha virt. eigenvalues --    1.97197   2.01270   2.01429   2.05755   2.06531
 Alpha virt. eigenvalues --    2.08993   2.11846   2.12601   2.13619   2.16659
 Alpha virt. eigenvalues --    2.19183   2.21134   2.24352   2.29198   2.32770
 Alpha virt. eigenvalues --    2.33582   2.36964   2.37835   2.39928   2.42931
 Alpha virt. eigenvalues --    2.45384   2.47114   2.48140   2.50784   2.53829
 Alpha virt. eigenvalues --    2.54943   2.58062   2.59455   2.61130   2.63195
 Alpha virt. eigenvalues --    2.65866   2.66443   2.66953   2.68406   2.69045
 Alpha virt. eigenvalues --    2.72022   2.73748   2.74280   2.77394   2.79164
 Alpha virt. eigenvalues --    2.80392   2.83331   2.85806   2.87666   2.90617
 Alpha virt. eigenvalues --    2.93840   2.95992   2.97677   2.99493   3.02029
 Alpha virt. eigenvalues --    3.03936   3.07563   3.11469   3.19243   3.22591
 Alpha virt. eigenvalues --    3.34761   3.39958   3.43977   3.45129   3.47860
 Alpha virt. eigenvalues --    3.49627   3.53248   3.54309   3.57143   3.61089
 Alpha virt. eigenvalues --    4.24862   4.30011   4.42742   4.43829   4.51440
 Alpha virt. eigenvalues --    4.55494   4.61040   4.76569   4.88446   4.96481
 Alpha virt. eigenvalues --    5.07945
          Condensed to atoms (all electrons):
              1          2          3          4          5          6
     1  C    5.430864   0.150272  -0.319349   0.116388   0.063313  -0.377600
     2  C    0.150272   6.068505  -0.432858  -0.087933   0.180462  -0.082401
     3  C   -0.319349  -0.432858   6.335668  -0.100030  -0.658045   0.502954
     4  C    0.116388  -0.087933  -0.100030   6.188059  -0.161955  -0.331706
     5  C    0.063313   0.180462  -0.658045  -0.161955   6.532118  -0.432118
     6  C   -0.377600  -0.082401   0.502954  -0.331706  -0.432118   6.435420
     7  O   -0.004492   0.075545   0.135873   0.058428  -0.054410  -0.254552
     8  O    0.159072  -0.161367   0.302191  -0.017040  -0.118479   0.077735
     9  O    0.050522  -0.155353  -0.019696  -0.054961   0.010304   0.174878
    10  O    0.006041  -0.028959  -0.037054   0.095081  -0.027410   0.019618
    11  O    0.000549  -0.005610  -0.137634  -0.069985   0.251473   0.042222
    12  H    0.468806  -0.124145   0.015028   0.000392   0.007406  -0.010736
    13  H    0.378415  -0.018060  -0.014566  -0.007827  -0.000532   0.042016
    14  H   -0.013712   0.328556   0.016819   0.008110  -0.005401   0.004764
    15  H    0.012431   0.004674   0.398267   0.029007  -0.078294   0.011463
    16  H   -0.003500   0.014046   0.030262   0.409409  -0.064929  -0.042176
    17  H    0.013029  -0.007833  -0.113280  -0.080778   0.508510  -0.006627
    18  H    0.020383  -0.039010  -0.022464  -0.013837   0.026221   0.343746
    19  H   -0.003149  -0.012906  -0.000847   0.017493  -0.002307   0.003265
    20  H   -0.002657   0.013834   0.020036   0.038575  -0.041782  -0.039944
    21  H   -0.000239  -0.002599  -0.014006  -0.065436   0.035353   0.014690
              7          8          9         10         11         12
     1  C   -0.004492   0.159072   0.050522   0.006041   0.000549   0.468806
     2  C    0.075545  -0.161367  -0.155353  -0.028959  -0.005610  -0.124145
     3  C    0.135873   0.302191  -0.019696  -0.037054  -0.137634   0.015028
     4  C    0.058428  -0.017040  -0.054961   0.095081  -0.069985   0.000392
     5  C   -0.054410  -0.118479   0.010304  -0.027410   0.251473   0.007406
     6  C   -0.254552   0.077735   0.174878   0.019618   0.042222  -0.010736
     7  O    8.546049  -0.058459   0.026874   0.013057   0.008519   0.010251
     8  O   -0.058459   8.403928  -0.007813  -0.001167   0.004630  -0.045748
     9  O    0.026874  -0.007813   8.362128   0.005988  -0.001101   0.006978
    10  O    0.013057  -0.001167   0.005988   8.356990  -0.023090   0.000175
    11  O    0.008519   0.004630  -0.001101  -0.023090   8.334793   0.000004
    12  H    0.010251  -0.045748   0.006978   0.000175   0.000004   0.534373
    13  H   -0.004776  -0.049734  -0.002198  -0.000051   0.000072  -0.040013
    14  H   -0.034726   0.007649   0.000771  -0.000516   0.000124   0.002498
    15  H   -0.046471  -0.042704   0.000053  -0.002621   0.001030  -0.000273
    16  H   -0.000505  -0.001019  -0.001841  -0.049740   0.005475   0.000001
    17  H    0.013982  -0.001592   0.003825   0.010027  -0.059915   0.000020
    18  H    0.005460  -0.000775  -0.033129  -0.004888  -0.000786   0.000118
    19  H   -0.000321   0.000538   0.252994  -0.000231   0.000021  -0.000620
    20  H    0.015847  -0.000233   0.000151   0.255512  -0.001477  -0.000008
    21  H    0.000959  -0.000080   0.000004   0.039508   0.249121   0.000000
             13         14         15         16         17         18
     1  C    0.378415  -0.013712   0.012431  -0.003500   0.013029   0.020383
     2  C   -0.018060   0.328556   0.004674   0.014046  -0.007833  -0.039010
     3  C   -0.014566   0.016819   0.398267   0.030262  -0.113280  -0.022464
     4  C   -0.007827   0.008110   0.029007   0.409409  -0.080778  -0.013837
     5  C   -0.000532  -0.005401  -0.078294  -0.064929   0.508510   0.026221
     6  C    0.042016   0.004764   0.011463  -0.042176  -0.006627   0.343746
     7  O   -0.004776  -0.034726  -0.046471  -0.000505   0.013982   0.005460
     8  O   -0.049734   0.007649  -0.042704  -0.001019  -0.001592  -0.000775
     9  O   -0.002198   0.000771   0.000053  -0.001841   0.003825  -0.033129
    10  O   -0.000051  -0.000516  -0.002621  -0.049740   0.010027  -0.004888
    11  O    0.000072   0.000124   0.001030   0.005475  -0.059915  -0.000786
    12  H   -0.040013   0.002498  -0.000273   0.000001   0.000020   0.000118
    13  H    0.557872  -0.004277   0.000356   0.000002  -0.000031  -0.000095
    14  H   -0.004277   0.513880  -0.000056  -0.000097   0.000038  -0.007013
    15  H    0.000356  -0.000056   0.538752  -0.000145   0.000720   0.000004
    16  H    0.000002  -0.000097  -0.000145   0.534441  -0.004220  -0.003422
    17  H   -0.000031   0.000038   0.000720  -0.004220   0.536229  -0.000058
    18  H   -0.000095  -0.007013   0.000004  -0.003422  -0.000058   0.563284
    19  H    0.000020   0.000848   0.000001   0.000073   0.000011  -0.007980
    20  H    0.000005  -0.000498  -0.000072   0.005587  -0.000248  -0.000760
    21  H    0.000000   0.000001  -0.000119  -0.000997   0.005724  -0.000021
             19         20         21
     1  C   -0.003149  -0.002657  -0.000239
     2  C   -0.012906   0.013834  -0.002599
     3  C   -0.000847   0.020036  -0.014006
     4  C    0.017493   0.038575  -0.065436
     5  C   -0.002307  -0.041782   0.035353
     6  C    0.003265  -0.039944   0.014690
     7  O   -0.000321   0.015847   0.000959
     8  O    0.000538  -0.000233  -0.000080
     9  O    0.252994   0.000151   0.000004
    10  O   -0.000231   0.255512   0.039508
    11  O    0.000021  -0.001477   0.249121
    12  H   -0.000620  -0.000008   0.000000
    13  H    0.000020   0.000005   0.000000
    14  H    0.000848  -0.000498   0.000001
    15  H    0.000001  -0.000072  -0.000119
    16  H    0.000073   0.005587  -0.000997
    17  H    0.000011  -0.000248   0.005724
    18  H   -0.007980  -0.000760  -0.000021
    19  H    0.326741  -0.000014   0.000001
    20  H   -0.000014   0.315189  -0.003580
    21  H    0.000001  -0.003580   0.331416
 Mulliken atomic charges:
              1
     1  C   -0.145387
     2  C    0.323139
     3  C    0.112732
     4  C    0.030546
     5  C    0.030502
     6  C   -0.094911
     7  O   -0.452133
     8  O   -0.449530
     9  O   -0.619378
    10  O   -0.626269
    11  O   -0.598435
    12  H    0.175492
    13  H    0.163403
    14  H    0.182237
    15  H    0.173996
    16  H    0.173295
    17  H    0.182469
    18  H    0.175024
    19  H    0.426369
    20  H    0.426538
    21  H    0.410301
 Sum of Mulliken atomic charges =   0.00000
 Mulliken charges with hydrogens summed into heavy atoms:
              1
     1  C    0.193508
     2  C    0.505376
     3  C    0.286728
     4  C    0.203841
     5  C    0.212972
     6  C    0.080114
     7  O   -0.452133
     8  O   -0.449530
     9  O   -0.193009
    10  O   -0.199731
    11  O   -0.188134
 Sum of Mulliken charges with hydrogens summed into heavy atoms =   0.00000
 Electronic spatial extent (au):  <R**2>=           1409.7547
 Charge=              0.0000 electrons
 Dipole moment (field-independent basis, Debye):
    X=             -4.9846    Y=              3.3252    Z=              3.0435  Tot=              6.7206
 Quadrupole moment (field-independent basis, Debye-Ang):
   XX=            -63.0289   YY=            -67.4611   ZZ=            -68.7228
   XY=             -6.9018   XZ=             -0.2937   YZ=             -1.3031
 Traceless Quadrupole moment (field-independent basis, Debye-Ang):
   XX=              3.3754   YY=             -1.0568   ZZ=             -2.3185
   XY=             -6.9018   XZ=             -0.2937   YZ=             -1.3031
 Octapole moment (field-independent basis, Debye-Ang**2):
  XXX=            -43.1487  YYY=             15.2006  ZZZ=              8.1842  XYY=            -14.6145
  XXY=             17.0259  XXZ=             12.3206  XZZ=             -0.3875  YZZ=              3.1067
  YYZ=              6.2073  XYZ=             -7.7471
 Hexadecapole moment (field-independent basis, Debye-Ang**3):
 XXXX=           -804.5426 YYYY=           -581.8501 ZZZZ=           -311.0992 XXXY=            -20.0993
 XXXZ=             37.2372 YYYX=            -53.0064 YYYZ=            -15.9646 ZZZX=              5.9564
 ZZZY=             12.8437 XXYY=           -238.0618 XXZZ=           -196.1236 YYZZ=           -168.8595
 XXYZ=            -36.4432 YYXZ=             -3.9365 ZZXY=             -4.8405
 N-N= 7.297556656749D+02 E-N=-2.889234309573D+03  KE= 6.053418001661D+02

 Test job not archived.
 1\1\GINC-COMPUTE-8-7\SP\RB3LYP\6-31+G(d,p)\C6H10O5\ASAROTTI.IQUIR\15-A
 pr-2019\0\\# B3LYP/6-31+G** test scrf=(pcm,solvent=water,smd,dovacuum)
 \\comment\\0,1\C,0,-2.079764,-0.688223,-0.060198\C,0,-1.243261,0.20523
 9,0.859134\C,0,0.111613,-1.384659,0.085975\C,0,0.931427,0.9818,-0.2124
 72\C,0,1.045661,-0.465829,-0.748448\C,0,-0.516653,1.386691,0.129546\O,
 0,-0.242921,-0.741592,1.312877\O,0,-1.115334,-1.611528,-0.595652\O,0,-
 1.148348,1.780119,-1.084976\O,0,1.772746,1.107155,0.943395\O,0,2.39742
 9,-0.892144,-0.690329\H,0,-2.55629,-0.142332,-0.875479\H,0,-2.834243,-
 1.238576,0.512581\H,0,-1.792481,0.547252,1.737\H,0,0.596589,-2.33633,0
 .317759\H,0,1.327414,1.688229,-0.945454\H,0,0.724972,-0.519263,-1.7931
 74\H,0,-0.451179,2.239781,0.815632\H,0,-1.957457,2.268141,-0.862648\H,
 0,1.360723,0.546304,1.627771\H,0,2.779237,-0.399402,0.062268\\Version=
 EM64L-G09RevC.01\State=1-A\HF=-610.8008969\RMSD=4.489e-09\Dipole=-1.96
 10767,1.3082466,1.1974011\Quadrupole=2.5094976,-0.7857298,-1.7237677,-
 5.1313501,-0.2183355,-0.9688017\PG=C01 [X(C6H10O5)]\\@


 THE WORLD IS MADE UP OF THE WILLS, THE WON'TS, AND THE CANT'S:
 THE WILLS DO EVERYTHING,
 THE WON'TS DO NOTHING,
 THE CAN'TS CAN'T DO ANYTHING.

                               -- FROM WALT DISNEY'S "BLACK HOLE"
 Job cpu time:  0 days  0 hours  8 minutes 38.3 seconds.
 File lengths (MBytes):  RWF=     55 Int=      0 D2E=      0 Chk=      4 Scr=      1
 Normal termination of Gaussian 09 at Mon Apr 15 18:23:31 2019.
