 Entering Gaussian System, Link 0=g09
 Input=/home/mmarcarino.iquir/NMR/03_RRS_Levo07_OPTB_nmr.gjc
 Output=/home/mmarcarino.iquir/NMR/03_RRS_Levo07_OPTB_nmr.log
 Initial command:
 /share/apps/Gaussian09/EM64T.SSE4.2-enabled/g09/l1.exe /tmp/Gau-62141.inp -scrdir=/tmp/
 Entering Link 1 = /share/apps/Gaussian09/EM64T.SSE4.2-enabled/g09/l1.exe PID=     62142.
  
 Copyright (c) 1988,1990,1992,1993,1995,1998,2003,2009,2011,
            Gaussian, Inc.  All Rights Reserved.
  
 This is part of the Gaussian(R) 09 program.  It is based on
 the Gaussian(R) 03 system (copyright 2003, Gaussian, Inc.),
 the Gaussian(R) 98 system (copyright 1998, Gaussian, Inc.),
 the Gaussian(R) 94 system (copyright 1995, Gaussian, Inc.),
 the Gaussian 92(TM) system (copyright 1992, Gaussian, Inc.),
 the Gaussian 90(TM) system (copyright 1990, Gaussian, Inc.),
 the Gaussian 88(TM) system (copyright 1988, Gaussian, Inc.),
 the Gaussian 86(TM) system (copyright 1986, Carnegie Mellon
 University), and the Gaussian 82(TM) system (copyright 1983,
 Carnegie Mellon University). Gaussian is a federally registered
 trademark of Gaussian, Inc.
  
 This software contains proprietary and confidential information,
 including trade secrets, belonging to Gaussian, Inc.
  
 This software is provided under written license and may be
 used, copied, transmitted, or stored only in accord with that
 written license.
  
 The following legend is applicable only to US Government
 contracts under FAR:
  
                    RESTRICTED RIGHTS LEGEND
  
 Use, reproduction and disclosure by the US Government is
 subject to restrictions as set forth in subparagraphs (a)
 and (c) of the Commercial Computer Software - Restricted
 Rights clause in FAR 52.227-19.
  
 Gaussian, Inc.
 340 Quinnipiac St., Bldg. 40, Wallingford CT 06492
  
  
 ---------------------------------------------------------------
 Warning -- This program may not be used in any manner that
 competes with the business of Gaussian, Inc. or will provide
 assistance to any competitor of Gaussian, Inc.  The licensee
 of this program is prohibited from giving any competitor of
 Gaussian, Inc. access to this program.  By using this program,
 the user acknowledges that Gaussian, Inc. is engaged in the
 business of creating and licensing software in the field of
 computational chemistry and represents and warrants to the
 licensee that it is not a competitor of Gaussian, Inc. and that
 it will not use this program in any manner prohibited above.
 ---------------------------------------------------------------
  

 Cite this work as:
 Gaussian 09, Revision C.01,
 M. J. Frisch, G. W. Trucks, H. B. Schlegel, G. E. Scuseria, 
 M. A. Robb, J. R. Cheeseman, G. Scalmani, V. Barone, B. Mennucci, 
 G. A. Petersson, H. Nakatsuji, M. Caricato, X. Li, H. P. Hratchian, 
 A. F. Izmaylov, J. Bloino, G. Zheng, J. L. Sonnenberg, M. Hada, 
 M. Ehara, K. Toyota, R. Fukuda, J. Hasegawa, M. Ishida, T. Nakajima, 
 Y. Honda, O. Kitao, H. Nakai, T. Vreven, J. A. Montgomery, Jr., 
 J. E. Peralta, F. Ogliaro, M. Bearpark, J. J. Heyd, E. Brothers, 
 K. N. Kudin, V. N. Staroverov, T. Keith, R. Kobayashi, J. Normand, 
 K. Raghavachari, A. Rendell, J. C. Burant, S. S. Iyengar, J. Tomasi, 
 M. Cossi, N. Rega, J. M. Millam, M. Klene, J. E. Knox, J. B. Cross, 
 V. Bakken, C. Adamo, J. Jaramillo, R. Gomperts, R. E. Stratmann, 
 O. Yazyev, A. J. Austin, R. Cammi, C. Pomelli, J. W. Ochterski, 
 R. L. Martin, K. Morokuma, V. G. Zakrzewski, G. A. Voth, 
 P. Salvador, J. J. Dannenberg, S. Dapprich, A. D. Daniels, 
 O. Farkas, J. B. Foresman, J. V. Ortiz, J. Cioslowski, 
 and D. J. Fox, Gaussian, Inc., Wallingford CT, 2010.
 
 ******************************************
 Gaussian 09:  EM64L-G09RevC.01 23-Sep-2011
                12-Apr-2019 
 ******************************************
 %nprocshared=4
 Will use up to    4 processors via shared memory.
 ------------------------------------------------
 # mpw1pw91/6-31+g** nmr scrf=(pcm,solvent=water)
 ------------------------------------------------
 1/38=1/1;
 2/12=2,17=6,18=5,40=1/2;
 3/5=1,6=6,7=111,11=2,16=1,25=1,30=1,70=2201,72=1,74=-7/1,2,8,3;
 4//1;
 5/5=2,38=5,53=1/2;
 8/6=1,10=90,11=11/1;
 10/13=100,45=16/2;
 6/7=2,8=2,9=2,10=2,28=1/1;
 99/9=1/99;
 -------
 comment
 -------
 Charge =  0 Multiplicity = 1
 Symbolic Z-Matrix:
 6                    -1.70296   1.09794  -0.55965 
 6                    -0.91149   0.92666   0.73989 
 6                    -1.16879  -1.10463  -0.13646 
 6                     1.04408  -0.02467  -0.54989 
 6                     0.32555  -1.3802   -0.39412 
 6                     0.61704   0.96829   0.54026 
 8                    -1.26879  -0.42289   1.11034 
 8                    -1.72488  -0.23558  -1.11406 
 8                     1.08189   2.24972   0.12171 
 8                     2.45046  -0.22358  -0.54485 
 8                     0.83437  -2.18096   0.66493 
 1                    -1.22462   1.78595  -1.26171 
 1                    -2.7303    1.4255   -0.3691 
 1                    -1.23214   1.59788   1.53923 
 1                    -1.74974  -2.02821  -0.07467 
 1                     0.73024   0.39602  -1.51632 
 1                     0.45792  -1.96552  -1.30916 
 1                     1.09162   0.67596   1.48694 
 1                     1.10241   2.83609   0.89515 
 1                     2.84027   0.66337  -0.62578 
 1                     0.50925  -1.7811    1.4907 
 
                          Input orientation:                          
 ---------------------------------------------------------------------
 Center     Atomic      Atomic             Coordinates (Angstroms)
 Number     Number       Type             X           Y           Z
 ---------------------------------------------------------------------
      1          6           0       -1.702961    1.097939   -0.559653
      2          6           0       -0.911491    0.926664    0.739889
      3          6           0       -1.168785   -1.104627   -0.136456
      4          6           0        1.044083   -0.024666   -0.549889
      5          6           0        0.325554   -1.380198   -0.394121
      6          6           0        0.617036    0.968289    0.540263
      7          8           0       -1.268785   -0.422888    1.110336
      8          8           0       -1.724878   -0.235581   -1.114064
      9          8           0        1.081893    2.249716    0.121712
     10          8           0        2.450457   -0.223577   -0.544846
     11          8           0        0.834372   -2.180963    0.664925
     12          1           0       -1.224621    1.785950   -1.261709
     13          1           0       -2.730296    1.425496   -0.369096
     14          1           0       -1.232143    1.597879    1.539234
     15          1           0       -1.749742   -2.028206   -0.074674
     16          1           0        0.730242    0.396016   -1.516321
     17          1           0        0.457919   -1.965516   -1.309161
     18          1           0        1.091619    0.675956    1.486944
     19          1           0        1.102411    2.836088    0.895151
     20          1           0        2.840272    0.663374   -0.625780
     21          1           0        0.509246   -1.781099    1.490699
 ---------------------------------------------------------------------
                    Distance matrix (angstroms):
                    1          2          3          4          5
     1  C    0.000000
     2  C    1.531199   0.000000
     3  C    2.305588   2.227178   0.000000
     4  C    2.967590   2.528404   2.496803   0.000000
     5  C    3.206780   2.852695   1.541227   1.542081   0.000000
     6  C    2.570800   1.542069   2.818525   1.535174   2.544293
     7  O    2.300062   1.444362   1.424520   2.874767   2.392018
     8  O    1.444343   2.334428   1.421337   2.833712   2.456163
     9  O    3.089702   2.471070   4.047693   2.371770   3.743582
    10  O    4.358613   3.778398   3.747258   1.420380   2.423985
    11  O    4.323060   3.565249   2.411089   2.483821   1.421865
    12  H    1.093184   2.200640   3.102378   2.988651   3.630461
    13  H    1.094999   2.187860   2.982274   4.047418   4.148586
    14  H    2.208379   1.091925   3.180486   3.489741   3.877270
    15  H    3.163886   3.177646   1.092852   3.470657   2.197456
    16  H    2.707099   2.840310   2.786083   1.099755   2.139636
    17  H    3.823077   3.799815   2.182323   2.164944   1.094265
    18  H    3.489456   2.152532   3.303836   2.154488   2.890161
    19  H    3.606623   2.779534   4.663880   3.205535   4.476918
    20  H    4.564448   4.001262   4.408832   1.924955   3.248640
    21  H    4.169732   3.148681   2.433318   2.745015   1.935720
                    6          7          8          9         10
     6  C    0.000000
     7  O    2.411779   0.000000
     8  O    3.109769   2.278390   0.000000
     9  O    1.425950   3.694033   3.947380   0.000000
    10  O    2.441196   4.075796   4.213974   2.904212   0.000000
    11  O    3.159203   2.777137   3.674109   4.470712   2.811874
    12  H    2.703215   3.241529   2.087737   2.729275   4.249505
    13  H    3.498657   2.782311   2.079668   3.931032   5.439718
    14  H    2.194035   2.066106   3.262569   2.790882   4.606803
    15  H    3.867657   2.052465   2.072306   5.133940   4.595587
    16  H    2.137721   3.400888   2.566776   2.498602   2.070459
    17  H    3.471729   3.348906   2.792014   4.494989   2.754766
    18  H    1.098587   2.630741   3.940660   2.083428   2.604567
    19  H    1.962195   4.036062   4.633105   0.970804   3.640380
    20  H    2.528914   4.591123   4.678369   2.483369   0.972208
    21  H    2.911028   2.269539   3.763605   4.295290   3.215217
                   11         12         13         14         15
    11  O    0.000000
    12  H    4.867008   0.000000
    13  H    5.175191   1.787104   0.000000
    14  H    4.394832   2.807260   2.432263   0.000000
    15  H    2.692208   4.028969   3.602253   4.002637   0.000000
    16  H    3.377795   2.412101   3.788308   3.825160   3.755731
    17  H    2.021175   4.111775   4.748410   4.864920   2.530149
    18  H    2.983937   3.761934   4.314363   2.500509   4.221904
    19  H    5.029478   3.342142   4.275247   2.719953   5.721599
    20  H    3.712116   4.264732   5.628316   4.705863   5.349444
    21  H    0.973397   4.827617   4.922979   3.801616   2.759435
                   16         17         18         19         20
    16  H    0.000000
    17  H    2.386191   0.000000
    18  H    3.037855   3.898353   0.000000
    19  H    3.450748   5.322571   2.239756   0.000000
    20  H    2.305812   3.612987   2.742544   3.170817   0.000000
    21  H    3.718983   2.806396   2.525132   4.693073   3.986052
                   21
    21  H    0.000000
 Stoichiometry    C6H10O5
 Framework group  C1[X(C6H10O5)]
 Deg. of freedom    57
 Full point group                 C1      NOp   1
 Largest Abelian subgroup         C1      NOp   1
 Largest concise Abelian subgroup C1      NOp   1
                         Standard orientation:                         
 ---------------------------------------------------------------------
 Center     Atomic      Atomic             Coordinates (Angstroms)
 Number     Number       Type             X           Y           Z
 ---------------------------------------------------------------------
      1          6           0       -1.702960    1.097940   -0.559653
      2          6           0       -0.911490    0.926665    0.739889
      3          6           0       -1.168786   -1.104626   -0.136456
      4          6           0        1.044083   -0.024667   -0.549889
      5          6           0        0.325553   -1.380198   -0.394121
      6          6           0        0.617037    0.968289    0.540263
      7          8           0       -1.268785   -0.422887    1.110336
      8          8           0       -1.724878   -0.235580   -1.114064
      9          8           0        1.081895    2.249715    0.121712
     10          8           0        2.450457   -0.223579   -0.544846
     11          8           0        0.834370   -2.180964    0.664925
     12          1           0       -1.224620    1.785951   -1.261709
     13          1           0       -2.730295    1.425498   -0.369096
     14          1           0       -1.232142    1.597880    1.539234
     15          1           0       -1.749743   -2.028205   -0.074674
     16          1           0        0.730242    0.396015   -1.516321
     17          1           0        0.457918   -1.965516   -1.309161
     18          1           0        1.091620    0.675955    1.486944
     19          1           0        1.102413    2.836087    0.895151
     20          1           0        2.840273    0.663372   -0.625780
     21          1           0        0.509245   -1.781099    1.490699
 ---------------------------------------------------------------------
 Rotational constants (GHZ):      1.4510098      1.2974152      0.8900086
 Standard basis: 6-31+G(d,p) (6D, 7F)
 There are   259 symmetry adapted basis functions of A   symmetry.
 Integral buffers will be    131072 words long.
 Raffenetti 2 integral format.
 Two-electron integral symmetry is turned on.
   259 basis functions,   422 primitive gaussians,   259 cartesian basis functions
    43 alpha electrons       43 beta electrons
       nuclear repulsion energy       727.0306902644 Hartrees.
 NAtoms=   21 NActive=   21 NUniq=   21 SFac= 1.00D+00 NAtFMM=   60 NAOKFM=F Big=F
 ------------------------------------------------------------------------------
 Polarizable Continuum Model (PCM)
 =================================
 Model                : PCM.
 Atomic radii         : UFF (Universal Force Field).
 Polarization charges : Total charges.
 Charge compensation  : None.
 Solution method      : Matrix inversion.
 Cavity type          : Scaled VdW (van der Waals Surface) (Alpha=1.100).
 Cavity algorithm     : GePol (No added spheres)
                        Default sphere list used, NSphG=   21.
                        Lebedev-Laikov grids with approx.  5.0 points / Ang**2.
                        Smoothing algorithm: Karplus/York (Gamma=1.0000).
                        Polarization charges: spherical gaussians, with
                                              point-specific exponents (IZeta= 3).
                        Self-potential: point-specific (ISelfS= 7).
                        Self-field    : sphere-specific E.n sum rule (ISelfD= 2).
 Solvent              : Water, Eps=  78.355300 Eps(inf)=   1.777849
 ------------------------------------------------------------------------------
 One-electron integrals computed using PRISM.
 NBasis=   259 RedAO= T  NBF=   259
 NBsUse=   259 1.00D-06 NBFU=   259
 Harris functional with IExCor=  908 diagonalized for initial guess.
 ExpMin= 4.38D-02 ExpMax= 5.48D+03 ExpMxC= 8.25D+02 IAcc=2 IRadAn=         4 AccDes= 0.00D+00
 HarFok:  IExCor=  908 AccDes= 0.00D+00 IRadAn=         4 IDoV= 1
 ScaDFX=  1.000000  1.000000  1.000000  1.000000
 FoFCou: FMM=F IPFlag=           0 FMFlag=      100000 FMFlg1=           0
         NFxFlg=           0 DoJE=T BraDBF=F KetDBF=T FulRan=T
         Omega=  0.000000  0.000000  1.000000  0.000000  0.000000 ICntrl=     500 IOpCl=  0
         NMat0=    1 NMatS0=    1 NMatT0=    0 NMatD0=    1 NMtDS0=    0 NMtDT0=    0
         I1Cent=           4 NGrid=           0.
 Petite list used in FoFCou.
 Initial guess orbital symmetries:
       Occupied  (A) (A) (A) (A) (A) (A) (A) (A) (A) (A) (A) (A)
                 (A) (A) (A) (A) (A) (A) (A) (A) (A) (A) (A) (A)
                 (A) (A) (A) (A) (A) (A) (A) (A) (A) (A) (A) (A)
                 (A) (A) (A) (A) (A) (A) (A)
       Virtual   (A) (A) (A) (A) (A) (A) (A) (A) (A) (A) (A) (A)
                 (A) (A) (A) (A) (A) (A) (A) (A) (A) (A) (A) (A)
                 (A) (A) (A) (A) (A) (A) (A) (A) (A) (A) (A) (A)
                 (A) (A) (A) (A) (A) (A) (A) (A) (A) (A) (A) (A)
                 (A) (A) (A) (A) (A) (A) (A) (A) (A) (A) (A) (A)
                 (A) (A) (A) (A) (A) (A) (A) (A) (A) (A) (A) (A)
                 (A) (A) (A) (A) (A) (A) (A) (A) (A) (A) (A) (A)
                 (A) (A) (A) (A) (A) (A) (A) (A) (A) (A) (A) (A)
                 (A) (A) (A) (A) (A) (A) (A) (A) (A) (A) (A) (A)
                 (A) (A) (A) (A) (A) (A) (A) (A) (A) (A) (A) (A)
                 (A) (A) (A) (A) (A) (A) (A) (A) (A) (A) (A) (A)
                 (A) (A) (A) (A) (A) (A) (A) (A) (A) (A) (A) (A)
                 (A) (A) (A) (A) (A) (A) (A) (A) (A) (A) (A) (A)
                 (A) (A) (A) (A) (A) (A) (A) (A) (A) (A) (A) (A)
                 (A) (A) (A) (A) (A) (A) (A) (A) (A) (A) (A) (A)
                 (A) (A) (A) (A) (A) (A) (A) (A) (A) (A) (A) (A)
                 (A) (A) (A) (A) (A) (A) (A) (A) (A) (A) (A) (A)
                 (A) (A) (A) (A) (A) (A) (A) (A) (A) (A) (A) (A)
 The electronic state of the initial guess is 1-A.
 Requested convergence on RMS density matrix=1.00D-08 within 128 cycles.
 Requested convergence on MAX density matrix=1.00D-06.
 Requested convergence on             energy=1.00D-06.
 No special actions if energy rises.
 Error on total polarization charges =  0.01149
 SCF Done:  E(RmPW1PW91) =  -610.650474352     A.U. after   12 cycles
             Convg  =    0.5880D-08             -V/T =  2.0090
 Range of M.O.s used for correlation:     1   259
 NBasis=   259 NAE=    43 NBE=    43 NFC=     0 NFV=     0
 NROrb=    259 NOA=    43 NOB=    43 NVA=   216 NVB=   216

 **** Warning!!: The largest alpha MO coefficient is  0.48820821D+02

 NEqPCM:  Using equilibrium solvation (IEInf=0, Eps=  78.3553, EpsInf=   1.7778)
          Differentiating once with respect to magnetic field using GIAOs.
          Electric field/nuclear overlap derivatives assumed to be zero.
 FoFCou: FMM=F IPFlag=           0 FMFlag=    10101102 FMFlg1=           0
         NFxFlg=    40000000 DoJE=F BraDBF=F KetDBF=T FulRan=T
         Omega=  0.000000  0.000000  1.000000  0.000000  0.000000 ICntrl=    6100 IOpCl=  0
         NMat0=    1 NMatS0=    1 NMatT0=    0 NMatD0=    1 NMtDS0=    0 NMtDT0=    0
         I1Cent=           7 NGrid=        1544.
 Symmetry not used in FoFCou.
          There are     3 degrees of freedom in the 1st order CPHF.  IDoFFX=0.
      3 vectors produced by pass  0 Test12= 3.10D-13 3.33D-08 XBig12= 2.00D+01 7.80D-01.
 AX will form     3 AO Fock derivatives at one time.
      3 vectors produced by pass  1 Test12= 3.10D-13 3.33D-08 XBig12= 4.57D-02 2.73D-02.
      3 vectors produced by pass  2 Test12= 3.10D-13 3.33D-08 XBig12= 9.25D-05 1.46D-03.
      3 vectors produced by pass  3 Test12= 3.10D-13 3.33D-08 XBig12= 4.64D-07 1.18D-04.
      3 vectors produced by pass  4 Test12= 3.10D-13 3.33D-08 XBig12= 1.50D-09 5.55D-06.
      3 vectors produced by pass  5 Test12= 3.10D-13 3.33D-08 XBig12= 4.38D-12 3.55D-07.
 Inverted reduced A of dimension    18 with in-core refinement.
 Calculating GIAO nuclear magnetic shielding tensors.
 SCF GIAO Magnetic shielding tensor (ppm):
      1  C    Isotropic =   131.4807   Anisotropy =    67.5034
   XX=   106.4060   YX=    -5.2642   ZX=    10.4198
   XY=    -0.0931   YY=   163.4884   ZY=    27.9509
   XZ=     3.4740   YZ=    23.9875   ZZ=   124.5475
   Eigenvalues:   101.1321   116.8270   176.4829
      2  C    Isotropic =   119.0861   Anisotropy =    60.4058
   XX=   107.2438   YX=    22.3917   ZX=     7.7669
   XY=    12.3833   YY=   150.2176   ZY=   -17.3525
   XZ=    -0.8445   YZ=   -13.1014   ZZ=    99.7969
   Eigenvalues:    90.5473   107.3543   159.3567
      3  C    Isotropic =    92.0619   Anisotropy =    32.6596
   XX=    78.7032   YX=   -23.8973   ZX=    10.7226
   XY=   -13.3162   YY=    89.3397   ZY=   -11.9234
   XZ=     8.0258   YZ=     8.1835   ZZ=   108.1429
   Eigenvalues:    63.7322    98.6187   113.8350
      4  C    Isotropic =   124.9525   Anisotropy =    35.7283
   XX=   146.5485   YX=   -10.1684   ZX=    -3.7465
   XY=    -6.2742   YY=   118.2485   ZY=     4.4649
   XZ=     3.9661   YZ=     0.5776   ZZ=   110.0605
   Eigenvalues:   109.1692   116.9171   148.7714
      5  C    Isotropic =   123.0605   Anisotropy =    37.6242
   XX=   123.1337   YX=    -7.7956   ZX=    20.1175
   XY=    -1.7272   YY=   121.6884   ZY=   -16.1907
   XZ=     9.0374   YZ=   -17.7839   ZZ=   124.3593
   Eigenvalues:   103.1932   117.8450   148.1432
      6  C    Isotropic =   122.7384   Anisotropy =    34.4077
   XX=   123.8876   YX=    13.8729   ZX=    -6.4202
   XY=    -1.5759   YY=   139.9491   ZY=    -3.5203
   XZ=    -7.6138   YZ=   -17.4893   ZZ=   104.3785
   Eigenvalues:   100.3114   122.2268   145.6769
      7  O    Isotropic =   240.5331   Anisotropy =    53.9815
   XX=   189.6681   YX=   -10.0043   ZX=    10.6881
   XY=   -16.4254   YY=   274.2595   ZY=    12.2412
   XZ=    26.1710   YZ=   -10.5024   ZZ=   257.6717
   Eigenvalues:   183.1321   261.9465   276.5208
      8  O    Isotropic =   263.9772   Anisotropy =   113.3409
   XX=   200.4704   YX=   -31.3585   ZX=    44.7534
   XY=   -28.5789   YY=   267.2151   ZY=    -4.1592
   XZ=    47.4751   YZ=    24.3569   ZZ=   324.2461
   Eigenvalues:   174.4036   277.9902   339.5378
      9  O    Isotropic =   303.4828   Anisotropy =    53.5734
   XX=   269.3353   YX=    -7.6771   ZX=     1.4119
   XY=    11.3326   YY=   328.8825   ZY=    13.0516
   XZ=    -0.3146   YZ=    20.1981   ZZ=   312.2306
   Eigenvalues:   269.2793   301.9708   339.1984
     10  O    Isotropic =   306.2131   Anisotropy =    33.6835
   XX=   318.3885   YX=    11.6706   ZX=    -2.9833
   XY=    11.3128   YY=   306.8788   ZY=    12.2499
   XZ=    12.5527   YZ=    11.4499   ZZ=   293.3721
   Eigenvalues:   286.3850   303.5856   328.6688
     11  O    Isotropic =   304.1130   Anisotropy =    50.7553
   XX=   284.8123   YX=   -18.8659   ZX=   -21.9220
   XY=   -24.7920   YY=   306.3240   ZY=    12.8890
   XZ=    -9.1061   YZ=     7.6415   ZZ=   321.2027
   Eigenvalues:   269.9147   304.4744   337.9499
     12  H    Isotropic =    27.4026   Anisotropy =     6.2328
   XX=    26.1593   YX=     0.4246   ZX=     0.3876
   XY=     0.3595   YY=    30.0153   ZY=    -3.7910
   XZ=     1.6724   YZ=    -2.0390   ZZ=    26.0333
   Eigenvalues:    23.9516    26.6984    31.5578
     13  H    Isotropic =    27.7579   Anisotropy =    11.5437
   XX=    31.1104   YX=    -4.8835   ZX=     1.0376
   XY=    -5.8390   YY=    28.5752   ZY=     1.7196
   XZ=    -0.7912   YZ=     2.1012   ZZ=    23.5879
   Eigenvalues:    22.2862    25.5337    35.4537
     14  H    Isotropic =    27.2220   Anisotropy =     7.6225
   XX=    25.6422   YX=    -1.1068   ZX=    -2.0911
   XY=    -0.6003   YY=    28.3989   ZY=     4.6338
   XZ=    -1.8945   YZ=     2.7283   ZZ=    27.6250
   Eigenvalues:    23.7304    25.6320    32.3037
     15  H    Isotropic =    26.1254   Anisotropy =     8.0158
   XX=    25.4813   YX=     3.0013   ZX=     1.0048
   XY=     3.4303   YY=    29.5721   ZY=     0.6490
   XZ=     1.3147   YZ=     0.4277   ZZ=    23.3229
   Eigenvalues:    22.6580    24.2489    31.4693
     16  H    Isotropic =    27.8127   Anisotropy =     5.0759
   XX=    31.0322   YX=    -1.0317   ZX=     1.0347
   XY=    -0.7906   YY=    23.9813   ZY=    -1.1151
   XZ=    -0.6839   YZ=    -1.6763   ZZ=    28.4247
   Eigenvalues:    23.4882    28.7533    31.1967
     17  H    Isotropic =    27.6906   Anisotropy =     6.3966
   XX=    24.2803   YX=    -0.1467   ZX=     1.1278
   XY=    -1.0044   YY=    28.5236   ZY=     2.1170
   XZ=     0.2149   YZ=     2.6813   ZZ=    30.2681
   Eigenvalues:    24.0148    27.1021    31.9550
     18  H    Isotropic =    27.6861   Anisotropy =     3.0688
   XX=    26.0269   YX=     1.6852   ZX=     1.2205
   XY=     1.3880   YY=    28.4232   ZY=    -1.7591
   XZ=     1.4973   YZ=    -0.6641   ZZ=    28.6082
   Eigenvalues:    24.5161    28.8102    29.7320
     19  H    Isotropic =    29.7216   Anisotropy =    20.8977
   XX=    21.6379   YX=     3.7843   ZX=     0.3591
   XY=     3.6321   YY=    35.2269   ZY=     9.7638
   XZ=     0.8182   YZ=     8.8480   ZZ=    32.3000
   Eigenvalues:    20.2502    25.2612    43.6534
     20  H    Isotropic =    29.0690   Anisotropy =    17.9656
   XX=    32.2227   YX=     6.9267   ZX=    -2.7566
   XY=     5.9898   YY=    35.8424   ZY=    -1.4836
   XZ=    -3.8325   YZ=     0.0292   ZZ=    19.1418
   Eigenvalues:    18.3169    27.8440    41.0460
     21  H    Isotropic =    29.9616   Anisotropy =    14.4682
   XX=    24.5658   YX=    -5.1002   ZX=    -2.6720
   XY=    -4.5473   YY=    27.2542   ZY=     2.5073
   XZ=    -3.3835   YZ=     1.9005   ZZ=    38.0648
   Eigenvalues:    20.8296    29.4480    39.6071
 End of Minotr Frequency-dependent properties file   721 does not exist.
 End of Minotr Frequency-dependent properties file   722 does not exist.

 **********************************************************************

            Population analysis using the SCF density.

 **********************************************************************

 Orbital symmetries:
       Occupied  (A) (A) (A) (A) (A) (A) (A) (A) (A) (A) (A) (A)
                 (A) (A) (A) (A) (A) (A) (A) (A) (A) (A) (A) (A)
                 (A) (A) (A) (A) (A) (A) (A) (A) (A) (A) (A) (A)
                 (A) (A) (A) (A) (A) (A) (A)
       Virtual   (A) (A) (A) (A) (A) (A) (A) (A) (A) (A) (A) (A)
                 (A) (A) (A) (A) (A) (A) (A) (A) (A) (A) (A) (A)
                 (A) (A) (A) (A) (A) (A) (A) (A) (A) (A) (A) (A)
                 (A) (A) (A) (A) (A) (A) (A) (A) (A) (A) (A) (A)
                 (A) (A) (A) (A) (A) (A) (A) (A) (A) (A) (A) (A)
                 (A) (A) (A) (A) (A) (A) (A) (A) (A) (A) (A) (A)
                 (A) (A) (A) (A) (A) (A) (A) (A) (A) (A) (A) (A)
                 (A) (A) (A) (A) (A) (A) (A) (A) (A) (A) (A) (A)
                 (A) (A) (A) (A) (A) (A) (A) (A) (A) (A) (A) (A)
                 (A) (A) (A) (A) (A) (A) (A) (A) (A) (A) (A) (A)
                 (A) (A) (A) (A) (A) (A) (A) (A) (A) (A) (A) (A)
                 (A) (A) (A) (A) (A) (A) (A) (A) (A) (A) (A) (A)
                 (A) (A) (A) (A) (A) (A) (A) (A) (A) (A) (A) (A)
                 (A) (A) (A) (A) (A) (A) (A) (A) (A) (A) (A) (A)
                 (A) (A) (A) (A) (A) (A) (A) (A) (A) (A) (A) (A)
                 (A) (A) (A) (A) (A) (A) (A) (A) (A) (A) (A) (A)
                 (A) (A) (A) (A) (A) (A) (A) (A) (A) (A) (A) (A)
                 (A) (A) (A) (A) (A) (A) (A) (A) (A) (A) (A) (A)
 The electronic state is 1-A.
 Alpha  occ. eigenvalues --  -19.28473 -19.27312 -19.27156 -19.26279 -19.26076
 Alpha  occ. eigenvalues --  -10.36240 -10.32094 -10.31660 -10.31357 -10.31224
 Alpha  occ. eigenvalues --  -10.30843  -1.14726  -1.08455  -1.07130  -1.05668
 Alpha  occ. eigenvalues --   -1.04396  -0.82557  -0.81148  -0.71055  -0.67936
 Alpha  occ. eigenvalues --   -0.65622  -0.60531  -0.57778  -0.56869  -0.54785
 Alpha  occ. eigenvalues --   -0.51772  -0.50222  -0.48593  -0.47971  -0.47052
 Alpha  occ. eigenvalues --   -0.44836  -0.43718  -0.41538  -0.40259  -0.39573
 Alpha  occ. eigenvalues --   -0.38431  -0.37695  -0.35538  -0.33602  -0.31910
 Alpha  occ. eigenvalues --   -0.30597  -0.29423  -0.28053
 Alpha virt. eigenvalues --    0.00545   0.01381   0.01881   0.02316   0.03991
 Alpha virt. eigenvalues --    0.04613   0.04949   0.05544   0.05840   0.08210
 Alpha virt. eigenvalues --    0.08955   0.09531   0.09710   0.10705   0.11308
 Alpha virt. eigenvalues --    0.11967   0.12820   0.13289   0.13874   0.14245
 Alpha virt. eigenvalues --    0.15052   0.15405   0.16014   0.16565   0.17658
 Alpha virt. eigenvalues --    0.18179   0.18821   0.19815   0.20144   0.20904
 Alpha virt. eigenvalues --    0.21596   0.22206   0.22679   0.23754   0.24015
 Alpha virt. eigenvalues --    0.24880   0.25195   0.25692   0.26175   0.27955
 Alpha virt. eigenvalues --    0.28129   0.28362   0.29102   0.29775   0.30488
 Alpha virt. eigenvalues --    0.31094   0.32042   0.32512   0.32758   0.33125
 Alpha virt. eigenvalues --    0.34778   0.35333   0.35995   0.36531   0.37240
 Alpha virt. eigenvalues --    0.37776   0.38386   0.39073   0.39978   0.40481
 Alpha virt. eigenvalues --    0.40627   0.41687   0.43704   0.44494   0.47578
 Alpha virt. eigenvalues --    0.48570   0.62687   0.65616   0.66933   0.69666
 Alpha virt. eigenvalues --    0.69908   0.73017   0.75233   0.76188   0.77717
 Alpha virt. eigenvalues --    0.78611   0.81364   0.83224   0.83562   0.85714
 Alpha virt. eigenvalues --    0.89579   0.91881   0.96130   0.97264   0.99975
 Alpha virt. eigenvalues --    1.03107   1.03452   1.04437   1.05863   1.06973
 Alpha virt. eigenvalues --    1.08428   1.10052   1.11232   1.13310   1.14823
 Alpha virt. eigenvalues --    1.19680   1.21637   1.22861   1.26031   1.27366
 Alpha virt. eigenvalues --    1.28227   1.29700   1.31237   1.32706   1.34373
 Alpha virt. eigenvalues --    1.35847   1.36420   1.39005   1.39917   1.40346
 Alpha virt. eigenvalues --    1.43065   1.44006   1.46784   1.48115   1.50787
 Alpha virt. eigenvalues --    1.53309   1.55759   1.57039   1.58370   1.60142
 Alpha virt. eigenvalues --    1.61252   1.64809   1.65478   1.67744   1.68823
 Alpha virt. eigenvalues --    1.70196   1.72319   1.75116   1.77348   1.78600
 Alpha virt. eigenvalues --    1.81322   1.82796   1.85703   1.86406   1.87050
 Alpha virt. eigenvalues --    1.90651   1.93506   1.95014   1.96465   1.98989
 Alpha virt. eigenvalues --    2.02600   2.03567   2.04662   2.07988   2.08535
 Alpha virt. eigenvalues --    2.09700   2.11275   2.12015   2.15939   2.18661
 Alpha virt. eigenvalues --    2.19481   2.20647   2.23477   2.26220   2.28696
 Alpha virt. eigenvalues --    2.32209   2.33750   2.36038   2.39804   2.41839
 Alpha virt. eigenvalues --    2.45070   2.46154   2.49957   2.50686   2.52894
 Alpha virt. eigenvalues --    2.56486   2.57188   2.58985   2.60668   2.62735
 Alpha virt. eigenvalues --    2.64684   2.66532   2.67943   2.68721   2.71588
 Alpha virt. eigenvalues --    2.72739   2.74147   2.76193   2.79346   2.81613
 Alpha virt. eigenvalues --    2.84241   2.85659   2.87879   2.90393   2.92137
 Alpha virt. eigenvalues --    2.94926   2.97516   2.97636   2.98716   3.01595
 Alpha virt. eigenvalues --    3.04432   3.10020   3.13099   3.14359   3.22487
 Alpha virt. eigenvalues --    3.35624   3.40348   3.42755   3.48196   3.50391
 Alpha virt. eigenvalues --    3.52178   3.53964   3.54860   3.58194   3.59956
 Alpha virt. eigenvalues --    4.28943   4.38386   4.41736   4.48084   4.50520
 Alpha virt. eigenvalues --    4.58875   4.62769   4.75842   4.84745   4.90021
 Alpha virt. eigenvalues --    5.00665
          Condensed to atoms (all electrons):
              1          2          3          4          5          6
     1  C    5.645962  -0.202500  -0.393363  -0.191248   0.176162   0.028850
     2  C   -0.202500   7.089306  -0.432785   0.202613  -0.021317  -0.829891
     3  C   -0.393363  -0.432785   6.669354  -0.031146  -0.839289   0.435554
     4  C   -0.191248   0.202613  -0.031146   6.239544  -0.266617  -0.105681
     5  C    0.176162  -0.021317  -0.839289  -0.266617   7.052693  -0.604122
     6  C    0.028850  -0.829891   0.435554  -0.105681  -0.604122   6.723183
     7  O   -0.022778   0.084432   0.276376  -0.064271  -0.134602  -0.033950
     8  O    0.208329  -0.130610   0.296278   0.071254  -0.207044  -0.028398
     9  O    0.049141  -0.123066  -0.044435  -0.164456   0.110368   0.189606
    10  O   -0.003109   0.029912   0.056621   0.287416  -0.154215  -0.142147
    11  O    0.000569  -0.013468  -0.104891  -0.113939   0.302925   0.022568
    12  H    0.483889  -0.157024   0.016555  -0.032796   0.019767   0.013350
    13  H    0.367522  -0.007930  -0.005770   0.007479  -0.004700   0.028613
    14  H    0.007680   0.277985   0.004128   0.000023  -0.001662   0.053231
    15  H   -0.000651   0.041088   0.323568   0.028443  -0.011147  -0.010282
    16  H    0.011022   0.006763  -0.028107   0.327380  -0.030860   0.013723
    17  H    0.008351  -0.026470   0.001006  -0.019376   0.319722   0.056380
    18  H    0.012397  -0.021613  -0.021789  -0.098676   0.033058   0.390624
    19  H   -0.007154  -0.033963   0.004407   0.017262  -0.011547   0.045665
    20  H   -0.000625   0.016124  -0.012549   0.018362   0.048637  -0.072843
    21  H    0.000345  -0.008656  -0.025927  -0.022352   0.004950   0.036226
              7          8          9         10         11         12
     1  C   -0.022778   0.208329   0.049141  -0.003109   0.000569   0.483889
     2  C    0.084432  -0.130610  -0.123066   0.029912  -0.013468  -0.157024
     3  C    0.276376   0.296278  -0.044435   0.056621  -0.104891   0.016555
     4  C   -0.064271   0.071254  -0.164456   0.287416  -0.113939  -0.032796
     5  C   -0.134602  -0.207044   0.110368  -0.154215   0.302925   0.019767
     6  C   -0.033950  -0.028398   0.189606  -0.142147   0.022568   0.013350
     7  O    8.314856  -0.032118   0.013343  -0.004381  -0.002716   0.011720
     8  O   -0.032118   8.308222  -0.002495  -0.002013   0.008765  -0.040790
     9  O    0.013343  -0.002495   8.328895  -0.007129  -0.003300   0.011683
    10  O   -0.004381  -0.002013  -0.007129   8.292539  -0.004791   0.000173
    11  O   -0.002716   0.008765  -0.003300  -0.004791   8.197077   0.000048
    12  H    0.011720  -0.040790   0.011683   0.000173   0.000048   0.516481
    13  H   -0.004000  -0.051748  -0.002218  -0.000024   0.000041  -0.035567
    14  H   -0.031984   0.006999  -0.003550  -0.000559  -0.000162   0.002350
    15  H   -0.047202  -0.039938  -0.000058  -0.000654   0.004661  -0.000233
    16  H    0.001015   0.000718  -0.000868  -0.041687   0.008225   0.000722
    17  H    0.010177  -0.001234  -0.000802  -0.002544  -0.053190   0.000003
    18  H    0.006387  -0.000579  -0.036046   0.002125   0.004388   0.000270
    19  H   -0.000081  -0.000012   0.237283   0.000137   0.000079  -0.000090
    20  H    0.000026   0.000238   0.017572   0.234835  -0.001628  -0.000012
    21  H    0.027652  -0.000056  -0.000350  -0.003501   0.252787  -0.000004
             13         14         15         16         17         18
     1  C    0.367522   0.007680  -0.000651   0.011022   0.008351   0.012397
     2  C   -0.007930   0.277985   0.041088   0.006763  -0.026470  -0.021613
     3  C   -0.005770   0.004128   0.323568  -0.028107   0.001006  -0.021789
     4  C    0.007479   0.000023   0.028443   0.327380  -0.019376  -0.098676
     5  C   -0.004700  -0.001662  -0.011147  -0.030860   0.319722   0.033058
     6  C    0.028613   0.053231  -0.010282   0.013723   0.056380   0.390624
     7  O   -0.004000  -0.031984  -0.047202   0.001015   0.010177   0.006387
     8  O   -0.051748   0.006999  -0.039938   0.000718  -0.001234  -0.000579
     9  O   -0.002218  -0.003550  -0.000058  -0.000868  -0.000802  -0.036046
    10  O   -0.000024  -0.000559  -0.000654  -0.041687  -0.002544   0.002125
    11  O    0.000041  -0.000162   0.004661   0.008225  -0.053190   0.004388
    12  H   -0.035567   0.002350  -0.000233   0.000722   0.000003   0.000270
    13  H    0.530780  -0.003161   0.000377   0.000008  -0.000001  -0.000136
    14  H   -0.003161   0.493937  -0.000001  -0.000253   0.000018  -0.006185
    15  H    0.000377  -0.000001   0.525334  -0.000177  -0.003162  -0.000074
    16  H    0.000008  -0.000253  -0.000177   0.551040  -0.005108   0.004663
    17  H   -0.000001   0.000018  -0.003162  -0.005108   0.524801  -0.000179
    18  H   -0.000136  -0.006185  -0.000074   0.004663  -0.000179   0.549001
    19  H   -0.000011   0.001934   0.000000   0.000107   0.000004  -0.007194
    20  H    0.000000  -0.000001   0.000005  -0.005962  -0.000130  -0.001103
    21  H    0.000002   0.000041  -0.000656  -0.000170   0.006206  -0.001357
             19         20         21
     1  C   -0.007154  -0.000625   0.000345
     2  C   -0.033963   0.016124  -0.008656
     3  C    0.004407  -0.012549  -0.025927
     4  C    0.017262   0.018362  -0.022352
     5  C   -0.011547   0.048637   0.004950
     6  C    0.045665  -0.072843   0.036226
     7  O   -0.000081   0.000026   0.027652
     8  O   -0.000012   0.000238  -0.000056
     9  O    0.237283   0.017572  -0.000350
    10  O    0.000137   0.234835  -0.003501
    11  O    0.000079  -0.001628   0.252787
    12  H   -0.000090  -0.000012  -0.000004
    13  H   -0.000011   0.000000   0.000002
    14  H    0.001934  -0.000001   0.000041
    15  H    0.000000   0.000005  -0.000656
    16  H    0.000107  -0.005962  -0.000170
    17  H    0.000004  -0.000130   0.006206
    18  H   -0.007194  -0.001103  -0.001357
    19  H    0.358414  -0.000976   0.000005
    20  H   -0.000976   0.374536  -0.000001
    21  H    0.000005  -0.000001   0.357291
 Mulliken atomic charges:
              1
     1  C   -0.178793
     2  C    0.261070
     3  C   -0.143796
     4  C   -0.089221
     5  C    0.218840
     6  C   -0.210260
     7  O   -0.367903
     8  O   -0.363768
     9  O   -0.569117
    10  O   -0.537006
    11  O   -0.504051
    12  H    0.189506
    13  H    0.180445
    14  H    0.199194
    15  H    0.190760
    16  H    0.187805
    17  H    0.185528
    18  H    0.192019
    19  H    0.395729
    20  H    0.385496
    21  H    0.377522
 Sum of Mulliken atomic charges =   0.00000
 Mulliken charges with hydrogens summed into heavy atoms:
              1
     1  C    0.191158
     2  C    0.460264
     3  C    0.046964
     4  C    0.098584
     5  C    0.404368
     6  C   -0.018241
     7  O   -0.367903
     8  O   -0.363768
     9  O   -0.173388
    10  O   -0.151510
    11  O   -0.126529
 Sum of Mulliken charges with hydrogens summed into heavy atoms =   0.00000
 Electronic spatial extent (au):  <R**2>=           1429.8289
 Charge=              0.0000 electrons
 Dipole moment (field-independent basis, Debye):
    X=             -1.6716    Y=              5.1467    Z=              2.1250  Tot=              5.8136
 Quadrupole moment (field-independent basis, Debye-Ang):
   XX=            -70.6550   YY=            -62.5446   ZZ=            -62.5182
   XY=              5.3906   XZ=              0.4334   YZ=              6.0315
 Traceless Quadrupole moment (field-independent basis, Debye-Ang):
   XX=             -5.4157   YY=              2.6947   ZZ=              2.7211
   XY=              5.3906   XZ=              0.4334   YZ=              6.0315
 Octapole moment (field-independent basis, Debye-Ang**2):
  XXX=             -1.9818  YYY=             29.6995  ZZZ=             11.5033  XYY=            -13.1603
  XXY=             24.8966  XXZ=              4.2828  XZZ=             12.0366  YZZ=              6.9595
  YYZ=              9.9945  XYZ=              3.7494
 Hexadecapole moment (field-independent basis, Debye-Ang**3):
 XXXX=           -782.4353 YYYY=           -687.7753 ZZZZ=           -265.4617 XXXY=             42.3828
 XXXZ=             -8.5231 YYYX=             46.9562 YYYZ=             57.9587 ZZZX=              2.0956
 ZZZY=             -2.2324 XXYY=           -235.4769 XXZZ=           -189.8845 YYZZ=           -132.3309
 XXYZ=             -1.9335 YYXZ=              9.3268 ZZXY=             -0.1757
 N-N= 7.270306902644D+02 E-N=-2.883885645013D+03  KE= 6.052067465201D+02
 1\1\GINC-COMPUTE-8-20\SP\RmPW1PW91\6-31+G(d,p)\C6H10O5\MMARCARINO.IQUI
 R\12-Apr-2019\0\\# mpw1pw91/6-31+g** nmr scrf=(pcm,solvent=water)\\com
 ment\\0,1\C,0,-1.702961,1.097939,-0.559653\C,0,-0.911491,0.926664,0.73
 9889\C,0,-1.168785,-1.104627,-0.136456\C,0,1.044083,-0.024666,-0.54988
 9\C,0,0.325554,-1.380198,-0.394121\C,0,0.617036,0.968289,0.540263\O,0,
 -1.268785,-0.422888,1.110336\O,0,-1.724878,-0.235581,-1.114064\O,0,1.0
 81893,2.249716,0.121712\O,0,2.450457,-0.223577,-0.544846\O,0,0.834372,
 -2.180963,0.664925\H,0,-1.224621,1.78595,-1.261709\H,0,-2.730296,1.425
 496,-0.369096\H,0,-1.232143,1.597879,1.539234\H,0,-1.749742,-2.028206,
 -0.074674\H,0,0.730242,0.396016,-1.516321\H,0,0.457919,-1.965516,-1.30
 9161\H,0,1.091619,0.675956,1.486944\H,0,1.102411,2.836088,0.895151\H,0
 ,2.840272,0.663374,-0.62578\H,0,0.509246,-1.781099,1.490699\\Version=E
 M64L-G09RevC.01\State=1-A\HF=-610.6504744\RMSD=5.880e-09\Dipole=-0.657
 6659,2.0248569,0.8360243\Quadrupole=-4.0264747,2.003434,2.0230407,4.00
 77892,0.3221996,4.4842358\PG=C01 [X(C6H10O5)]\\@


 In the beginning there was nothing, which exploded.
 Job cpu time:  0 days  0 hours 20 minutes 42.4 seconds.
 File lengths (MBytes):  RWF=     83 Int=      0 D2E=      0 Chk=      5 Scr=      1
 Normal termination of Gaussian 09 at Fri Apr 12 11:12:11 2019.
