 Entering Gaussian System, Link 0=g09
 Input=/home/mmarcarino.iquir/NMR/03_RRS_Levo15_OPTB_nmr.gjc
 Output=/home/mmarcarino.iquir/NMR/03_RRS_Levo15_OPTB_nmr.log
 Initial command:
 /share/apps/Gaussian09/EM64T.SSE4.2-enabled/g09/l1.exe /tmp/Gau-28043.inp -scrdir=/tmp/
 Entering Link 1 = /share/apps/Gaussian09/EM64T.SSE4.2-enabled/g09/l1.exe PID=     28044.
  
 Copyright (c) 1988,1990,1992,1993,1995,1998,2003,2009,2011,
            Gaussian, Inc.  All Rights Reserved.
  
 This is part of the Gaussian(R) 09 program.  It is based on
 the Gaussian(R) 03 system (copyright 2003, Gaussian, Inc.),
 the Gaussian(R) 98 system (copyright 1998, Gaussian, Inc.),
 the Gaussian(R) 94 system (copyright 1995, Gaussian, Inc.),
 the Gaussian 92(TM) system (copyright 1992, Gaussian, Inc.),
 the Gaussian 90(TM) system (copyright 1990, Gaussian, Inc.),
 the Gaussian 88(TM) system (copyright 1988, Gaussian, Inc.),
 the Gaussian 86(TM) system (copyright 1986, Carnegie Mellon
 University), and the Gaussian 82(TM) system (copyright 1983,
 Carnegie Mellon University). Gaussian is a federally registered
 trademark of Gaussian, Inc.
  
 This software contains proprietary and confidential information,
 including trade secrets, belonging to Gaussian, Inc.
  
 This software is provided under written license and may be
 used, copied, transmitted, or stored only in accord with that
 written license.
  
 The following legend is applicable only to US Government
 contracts under FAR:
  
                    RESTRICTED RIGHTS LEGEND
  
 Use, reproduction and disclosure by the US Government is
 subject to restrictions as set forth in subparagraphs (a)
 and (c) of the Commercial Computer Software - Restricted
 Rights clause in FAR 52.227-19.
  
 Gaussian, Inc.
 340 Quinnipiac St., Bldg. 40, Wallingford CT 06492
  
  
 ---------------------------------------------------------------
 Warning -- This program may not be used in any manner that
 competes with the business of Gaussian, Inc. or will provide
 assistance to any competitor of Gaussian, Inc.  The licensee
 of this program is prohibited from giving any competitor of
 Gaussian, Inc. access to this program.  By using this program,
 the user acknowledges that Gaussian, Inc. is engaged in the
 business of creating and licensing software in the field of
 computational chemistry and represents and warrants to the
 licensee that it is not a competitor of Gaussian, Inc. and that
 it will not use this program in any manner prohibited above.
 ---------------------------------------------------------------
  

 Cite this work as:
 Gaussian 09, Revision C.01,
 M. J. Frisch, G. W. Trucks, H. B. Schlegel, G. E. Scuseria, 
 M. A. Robb, J. R. Cheeseman, G. Scalmani, V. Barone, B. Mennucci, 
 G. A. Petersson, H. Nakatsuji, M. Caricato, X. Li, H. P. Hratchian, 
 A. F. Izmaylov, J. Bloino, G. Zheng, J. L. Sonnenberg, M. Hada, 
 M. Ehara, K. Toyota, R. Fukuda, J. Hasegawa, M. Ishida, T. Nakajima, 
 Y. Honda, O. Kitao, H. Nakai, T. Vreven, J. A. Montgomery, Jr., 
 J. E. Peralta, F. Ogliaro, M. Bearpark, J. J. Heyd, E. Brothers, 
 K. N. Kudin, V. N. Staroverov, T. Keith, R. Kobayashi, J. Normand, 
 K. Raghavachari, A. Rendell, J. C. Burant, S. S. Iyengar, J. Tomasi, 
 M. Cossi, N. Rega, J. M. Millam, M. Klene, J. E. Knox, J. B. Cross, 
 V. Bakken, C. Adamo, J. Jaramillo, R. Gomperts, R. E. Stratmann, 
 O. Yazyev, A. J. Austin, R. Cammi, C. Pomelli, J. W. Ochterski, 
 R. L. Martin, K. Morokuma, V. G. Zakrzewski, G. A. Voth, 
 P. Salvador, J. J. Dannenberg, S. Dapprich, A. D. Daniels, 
 O. Farkas, J. B. Foresman, J. V. Ortiz, J. Cioslowski, 
 and D. J. Fox, Gaussian, Inc., Wallingford CT, 2010.
 
 ******************************************
 Gaussian 09:  EM64L-G09RevC.01 23-Sep-2011
                12-Apr-2019 
 ******************************************
 %nprocshared=4
 Will use up to    4 processors via shared memory.
 ------------------------------------------------
 # mpw1pw91/6-31+g** nmr scrf=(pcm,solvent=water)
 ------------------------------------------------
 1/38=1/1;
 2/12=2,17=6,18=5,40=1/2;
 3/5=1,6=6,7=111,11=2,16=1,25=1,30=1,70=2201,72=1,74=-7/1,2,8,3;
 4//1;
 5/5=2,38=5,53=1/2;
 8/6=1,10=90,11=11/1;
 10/13=100,45=16/2;
 6/7=2,8=2,9=2,10=2,28=1/1;
 99/9=1/99;
 -------
 comment
 -------
 Charge =  0 Multiplicity = 1
 Symbolic Z-Matrix:
 6                    -2.13323  -0.62504   0.10637 
 6                    -1.20057   0.24291   0.93539 
 6                     0.06149  -1.35612   0.02148 
 6                     0.95651   0.97169  -0.2232 
 6                     1.07054  -0.48326  -0.76012 
 6                    -0.50307   1.37234   0.09372 
 8                    -0.20902  -0.75756   1.29036 
 8                    -1.19012  -1.37922  -0.67998 
 8                    -1.21593   1.72411  -1.08816 
 8                     1.78504   1.09732   0.94069 
 8                     2.40036  -0.94851  -0.61824 
 1                    -2.79237  -0.07311  -0.56391 
 1                    -2.72332  -1.28881   0.74816 
 1                    -1.6372    0.61546   1.8619 
 1                     0.43608  -2.36965   0.18766 
 1                     1.36247   1.67783  -0.95116 
 1                     0.81299  -0.53485  -1.8235 
 1                    -0.46648   2.29013   0.6855 
 1                    -1.20534   0.95904  -1.68797 
 1                     1.37266   0.52987   1.61943 
 1                     2.76791  -0.43007   0.12466 
 
                          Input orientation:                          
 ---------------------------------------------------------------------
 Center     Atomic      Atomic             Coordinates (Angstroms)
 Number     Number       Type             X           Y           Z
 ---------------------------------------------------------------------
      1          6           0       -2.133231   -0.625041    0.106368
      2          6           0       -1.200573    0.242913    0.935390
      3          6           0        0.061489   -1.356115    0.021484
      4          6           0        0.956505    0.971688   -0.223200
      5          6           0        1.070541   -0.483257   -0.760117
      6          6           0       -0.503068    1.372339    0.093721
      7          8           0       -0.209019   -0.757562    1.290360
      8          8           0       -1.190120   -1.379221   -0.679977
      9          8           0       -1.215932    1.724106   -1.088163
     10          8           0        1.785037    1.097315    0.940694
     11          8           0        2.400360   -0.948512   -0.618244
     12          1           0       -2.792370   -0.073111   -0.563908
     13          1           0       -2.723320   -1.288814    0.748160
     14          1           0       -1.637197    0.615464    1.861898
     15          1           0        0.436083   -2.369653    0.187664
     16          1           0        1.362472    1.677826   -0.951157
     17          1           0        0.812990   -0.534852   -1.823497
     18          1           0       -0.466476    2.290126    0.685502
     19          1           0       -1.205340    0.959036   -1.687973
     20          1           0        1.372660    0.529873    1.619426
     21          1           0        2.767912   -0.430066    0.124657
 ---------------------------------------------------------------------
                    Distance matrix (angstroms):
                    1          2          3          4          5
     1  C    0.000000
     2  C    1.520024   0.000000
     3  C    2.314837   2.232692   0.000000
     4  C    3.493512   2.554688   2.505911   0.000000
     5  C    3.321905   2.925752   1.546275   1.555040   0.000000
     6  C    2.578201   1.571790   2.787186   1.546387   2.578473
     7  O    2.263182   1.452630   1.428806   2.576745   2.432483
     8  O    1.441036   2.289288   1.434959   3.216118   2.433056
     9  O    2.790490   2.507775   3.514382   2.456375   3.195000
    10  O    4.360669   3.105463   3.136062   1.434189   2.429294
    11  O    4.602515   4.098779   2.458802   2.434737   1.415983
    12  H    1.090120   2.209431   3.183284   3.906629   3.889576
    13  H    1.095763   2.167949   2.878845   4.426570   4.161394
    14  H    2.206080   1.089886   3.187441   3.346912   3.926066
    15  H    3.106711   3.172261   1.093250   3.406495   2.204386
    16  H    4.317580   3.491022   3.441422   1.092411   2.189064
    17  H    3.523171   3.502972   2.154804   2.202546   1.095341
    18  H    3.407590   2.189160   3.743627   2.142170   3.484808
    19  H    2.567088   2.719354   3.144364   2.611378   2.849695
    20  H    3.989291   2.678018   2.798131   1.940014   2.603830
    21  H    4.905054   4.105979   2.862331   2.316703   1.914869
                    6          7          8          9         10
     6  C    0.000000
     7  O    2.460668   0.000000
     8  O    2.939682   2.287192   0.000000
     9  O    1.424347   3.581888   3.130163   0.000000
    10  O    2.455285   2.745741   4.196590   3.676267   0.000000
    11  O    3.784592   3.238532   3.616748   4.521203   2.644677
    12  H    2.786163   3.252766   2.070411   2.447445   4.958465
    13  H    3.526974   2.626389   2.097248   3.836924   5.104504
    14  H    2.232836   2.061928   3.261867   3.179530   3.576658
    15  H    3.859188   2.056923   2.092437   4.595188   3.795602
    16  H    2.159938   3.664027   3.991842   2.582456   2.023525
    17  H    3.007509   3.284845   2.456226   3.124121   3.354042
    18  H    1.092647   3.117778   3.981495   2.006975   2.560709
    19  H    1.959193   3.579083   2.546318   0.972222   3.983888
    20  H    2.560445   2.065788   3.936970   3.931671   0.976075
    21  H    3.734827   3.213757   4.149018   4.688539   1.991194
                   11         12         13         14         15
    11  O    0.000000
    12  H    5.266282   0.000000
    13  H    5.313658   1.790035   0.000000
    14  H    4.989889   2.773643   2.458933   0.000000
    15  H    2.554900   4.032601   3.385882   4.001559   0.000000
    16  H    2.843535   4.525313   5.327507   4.247341   4.305484
    17  H    2.035557   3.846868   4.437045   4.572612   2.748331
    18  H    4.517442   3.543402   4.231558   2.357751   4.772420
    19  H    4.217124   2.201707   3.645797   3.592510   4.158420
    20  H    2.872100   4.741098   4.565499   3.020821   3.366656
    21  H    0.977641   5.614114   5.592838   4.849343   3.033710
                   16         17         18         19         20
    16  H    0.000000
    17  H    2.441076   0.000000
    18  H    2.529548   3.989061   0.000000
    19  H    2.766445   2.514702   2.819770   0.000000
    20  H    2.815279   3.646997   2.711665   4.215347   0.000000
    21  H    2.752425   2.761884   4.263245   4.582790   2.258881
                   21
    21  H    0.000000
 Stoichiometry    C6H10O5
 Framework group  C1[X(C6H10O5)]
 Deg. of freedom    57
 Full point group                 C1      NOp   1
 Largest Abelian subgroup         C1      NOp   1
 Largest concise Abelian subgroup C1      NOp   1
                         Standard orientation:                         
 ---------------------------------------------------------------------
 Center     Atomic      Atomic             Coordinates (Angstroms)
 Number     Number       Type             X           Y           Z
 ---------------------------------------------------------------------
      1          6           0       -2.133231   -0.625041    0.106368
      2          6           0       -1.200573    0.242913    0.935390
      3          6           0        0.061489   -1.356115    0.021484
      4          6           0        0.956505    0.971688   -0.223200
      5          6           0        1.070541   -0.483257   -0.760117
      6          6           0       -0.503068    1.372339    0.093721
      7          8           0       -0.209019   -0.757562    1.290360
      8          8           0       -1.190120   -1.379221   -0.679977
      9          8           0       -1.215932    1.724106   -1.088163
     10          8           0        1.785037    1.097315    0.940694
     11          8           0        2.400360   -0.948512   -0.618244
     12          1           0       -2.792370   -0.073111   -0.563908
     13          1           0       -2.723320   -1.288814    0.748160
     14          1           0       -1.637197    0.615464    1.861898
     15          1           0        0.436083   -2.369653    0.187664
     16          1           0        1.362472    1.677826   -0.951157
     17          1           0        0.812990   -0.534852   -1.823497
     18          1           0       -0.466476    2.290126    0.685502
     19          1           0       -1.205340    0.959036   -1.687973
     20          1           0        1.372660    0.529873    1.619426
     21          1           0        2.767912   -0.430066    0.124657
 ---------------------------------------------------------------------
 Rotational constants (GHZ):      1.6372007      1.1805631      0.9636977
 Standard basis: 6-31+G(d,p) (6D, 7F)
 There are   259 symmetry adapted basis functions of A   symmetry.
 Integral buffers will be    131072 words long.
 Raffenetti 2 integral format.
 Two-electron integral symmetry is turned on.
   259 basis functions,   422 primitive gaussians,   259 cartesian basis functions
    43 alpha electrons       43 beta electrons
       nuclear repulsion energy       733.4653999900 Hartrees.
 NAtoms=   21 NActive=   21 NUniq=   21 SFac= 1.00D+00 NAtFMM=   60 NAOKFM=F Big=F
 ------------------------------------------------------------------------------
 Polarizable Continuum Model (PCM)
 =================================
 Model                : PCM.
 Atomic radii         : UFF (Universal Force Field).
 Polarization charges : Total charges.
 Charge compensation  : None.
 Solution method      : Matrix inversion.
 Cavity type          : Scaled VdW (van der Waals Surface) (Alpha=1.100).
 Cavity algorithm     : GePol (No added spheres)
                        Default sphere list used, NSphG=   21.
                        Lebedev-Laikov grids with approx.  5.0 points / Ang**2.
                        Smoothing algorithm: Karplus/York (Gamma=1.0000).
                        Polarization charges: spherical gaussians, with
                                              point-specific exponents (IZeta= 3).
                        Self-potential: point-specific (ISelfS= 7).
                        Self-field    : sphere-specific E.n sum rule (ISelfD= 2).
 Solvent              : Water, Eps=  78.355300 Eps(inf)=   1.777849
 ------------------------------------------------------------------------------
 One-electron integrals computed using PRISM.
 NBasis=   259 RedAO= T  NBF=   259
 NBsUse=   259 1.00D-06 NBFU=   259
 Harris functional with IExCor=  908 diagonalized for initial guess.
 ExpMin= 4.38D-02 ExpMax= 5.48D+03 ExpMxC= 8.25D+02 IAcc=2 IRadAn=         4 AccDes= 0.00D+00
 HarFok:  IExCor=  908 AccDes= 0.00D+00 IRadAn=         4 IDoV= 1
 ScaDFX=  1.000000  1.000000  1.000000  1.000000
 FoFCou: FMM=F IPFlag=           0 FMFlag=      100000 FMFlg1=           0
         NFxFlg=           0 DoJE=T BraDBF=F KetDBF=T FulRan=T
         Omega=  0.000000  0.000000  1.000000  0.000000  0.000000 ICntrl=     500 IOpCl=  0
         NMat0=    1 NMatS0=    1 NMatT0=    0 NMatD0=    1 NMtDS0=    0 NMtDT0=    0
         I1Cent=           4 NGrid=           0.
 Petite list used in FoFCou.
 Initial guess orbital symmetries:
       Occupied  (A) (A) (A) (A) (A) (A) (A) (A) (A) (A) (A) (A)
                 (A) (A) (A) (A) (A) (A) (A) (A) (A) (A) (A) (A)
                 (A) (A) (A) (A) (A) (A) (A) (A) (A) (A) (A) (A)
                 (A) (A) (A) (A) (A) (A) (A)
       Virtual   (A) (A) (A) (A) (A) (A) (A) (A) (A) (A) (A) (A)
                 (A) (A) (A) (A) (A) (A) (A) (A) (A) (A) (A) (A)
                 (A) (A) (A) (A) (A) (A) (A) (A) (A) (A) (A) (A)
                 (A) (A) (A) (A) (A) (A) (A) (A) (A) (A) (A) (A)
                 (A) (A) (A) (A) (A) (A) (A) (A) (A) (A) (A) (A)
                 (A) (A) (A) (A) (A) (A) (A) (A) (A) (A) (A) (A)
                 (A) (A) (A) (A) (A) (A) (A) (A) (A) (A) (A) (A)
                 (A) (A) (A) (A) (A) (A) (A) (A) (A) (A) (A) (A)
                 (A) (A) (A) (A) (A) (A) (A) (A) (A) (A) (A) (A)
                 (A) (A) (A) (A) (A) (A) (A) (A) (A) (A) (A) (A)
                 (A) (A) (A) (A) (A) (A) (A) (A) (A) (A) (A) (A)
                 (A) (A) (A) (A) (A) (A) (A) (A) (A) (A) (A) (A)
                 (A) (A) (A) (A) (A) (A) (A) (A) (A) (A) (A) (A)
                 (A) (A) (A) (A) (A) (A) (A) (A) (A) (A) (A) (A)
                 (A) (A) (A) (A) (A) (A) (A) (A) (A) (A) (A) (A)
                 (A) (A) (A) (A) (A) (A) (A) (A) (A) (A) (A) (A)
                 (A) (A) (A) (A) (A) (A) (A) (A) (A) (A) (A) (A)
                 (A) (A) (A) (A) (A) (A) (A) (A) (A) (A) (A) (A)
 The electronic state of the initial guess is 1-A.
 Requested convergence on RMS density matrix=1.00D-08 within 128 cycles.
 Requested convergence on MAX density matrix=1.00D-06.
 Requested convergence on             energy=1.00D-06.
 No special actions if energy rises.
 Error on total polarization charges =  0.01145
 SCF Done:  E(RmPW1PW91) =  -610.641876111     A.U. after   12 cycles
             Convg  =    0.4895D-08             -V/T =  2.0090
 Range of M.O.s used for correlation:     1   259
 NBasis=   259 NAE=    43 NBE=    43 NFC=     0 NFV=     0
 NROrb=    259 NOA=    43 NOB=    43 NVA=   216 NVB=   216

 **** Warning!!: The largest alpha MO coefficient is  0.68608082D+02

 NEqPCM:  Using equilibrium solvation (IEInf=0, Eps=  78.3553, EpsInf=   1.7778)
          Differentiating once with respect to magnetic field using GIAOs.
          Electric field/nuclear overlap derivatives assumed to be zero.
 FoFCou: FMM=F IPFlag=           0 FMFlag=    10101102 FMFlg1=           0
         NFxFlg=    40000000 DoJE=F BraDBF=F KetDBF=T FulRan=T
         Omega=  0.000000  0.000000  1.000000  0.000000  0.000000 ICntrl=    6100 IOpCl=  0
         NMat0=    1 NMatS0=    1 NMatT0=    0 NMatD0=    1 NMtDS0=    0 NMtDT0=    0
         I1Cent=           7 NGrid=        1516.
 Symmetry not used in FoFCou.
          There are     3 degrees of freedom in the 1st order CPHF.  IDoFFX=0.
      3 vectors produced by pass  0 Test12= 3.10D-13 3.33D-08 XBig12= 1.91D+01 7.57D-01.
 AX will form     3 AO Fock derivatives at one time.
      3 vectors produced by pass  1 Test12= 3.10D-13 3.33D-08 XBig12= 4.16D-02 2.80D-02.
      3 vectors produced by pass  2 Test12= 3.10D-13 3.33D-08 XBig12= 7.69D-05 1.59D-03.
      3 vectors produced by pass  3 Test12= 3.10D-13 3.33D-08 XBig12= 3.59D-07 1.25D-04.
      3 vectors produced by pass  4 Test12= 3.10D-13 3.33D-08 XBig12= 1.17D-09 6.03D-06.
      3 vectors produced by pass  5 Test12= 3.10D-13 3.33D-08 XBig12= 4.31D-12 3.84D-07.
 Inverted reduced A of dimension    18 with in-core refinement.
 Calculating GIAO nuclear magnetic shielding tensors.
 SCF GIAO Magnetic shielding tensor (ppm):
      1  C    Isotropic =   132.1890   Anisotropy =    58.1805
   XX=   137.3077   YX=   -23.7724   ZX=   -18.2610
   XY=   -11.5348   YY=   131.6784   ZY=    29.4757
   XZ=   -15.0790   YZ=    18.0257   ZZ=   127.5809
   Eigenvalues:   105.7844   119.8066   170.9760
      2  C    Isotropic =   119.4428   Anisotropy =    49.4460
   XX=   129.1697   YX=   -12.0727   ZX=    21.0350
   XY=   -22.7857   YY=   127.5105   ZY=    -5.2526
   XZ=    12.4259   YZ=   -12.4383   ZZ=   101.6483
   Eigenvalues:    93.7341   112.1875   152.4068
      3  C    Isotropic =    88.7359   Anisotropy =    25.1342
   XX=   102.4022   YX=     2.5560   ZX=     9.7095
   XY=     3.7586   YY=    75.3427   ZY=     7.1682
   XZ=     1.2712   YZ=     9.5988   ZZ=    88.4628
   Eigenvalues:    71.2513    89.4644   105.4921
      4  C    Isotropic =   124.5259   Anisotropy =    55.9563
   XX=   129.0647   YX=    -3.8180   ZX=    34.8751
   XY=   -10.3828   YY=   102.9461   ZY=    -6.3213
   XZ=    15.4670   YZ=     2.6551   ZZ=   141.5669
   Eigenvalues:   100.2169   111.5308   161.8301
      5  C    Isotropic =   124.5677   Anisotropy =    45.6098
   XX=   154.8073   YX=    -5.9966   ZX=    -1.7119
   XY=    10.7771   YY=   107.9670   ZY=    -4.9079
   XZ=     5.2663   YZ=   -10.0934   ZZ=   110.9289
   Eigenvalues:   101.6360   117.0929   154.9743
      6  C    Isotropic =   125.5329   Anisotropy =    52.6221
   XX=   134.5402   YX=    -6.2842   ZX=    29.7870
   XY=    -1.1367   YY=   104.6311   ZY=    -6.2540
   XZ=    16.8173   YZ=   -10.0042   ZZ=   137.4273
   Eigenvalues:   102.5555   113.4288   160.6143
      7  O    Isotropic =   244.9844   Anisotropy =    58.8920
   XX=   263.5186   YX=   -13.7714   ZX=    13.3281
   XY=   -26.1132   YY=   210.1546   ZY=    23.4624
   XZ=    28.9867   YZ=    34.5904   ZZ=   261.2800
   Eigenvalues:   187.3687   263.3388   284.2457
      8  O    Isotropic =   257.6397   Anisotropy =   107.5972
   XX=   289.4395   YX=    -5.4711   ZX=    26.1752
   XY=    -0.2485   YY=   187.4959   ZY=    43.9157
   XZ=    18.1629   YZ=    68.5556   ZZ=   295.9837
   Eigenvalues:   162.5806   280.9673   329.3712
      9  O    Isotropic =   291.7916   Anisotropy =    25.2002
   XX=   291.0139   YX=     9.6808   ZX=     3.3740
   XY=    16.0481   YY=   296.9076   ZY=    16.4138
   XZ=    10.6125   YZ=   -13.7418   ZZ=   287.4531
   Eigenvalues:   278.1666   288.6164   308.5917
     10  O    Isotropic =   293.6877   Anisotropy =    51.2279
   XX=   284.1384   YX=    14.6992   ZX=   -26.3113
   XY=    10.5851   YY=   289.9179   ZY=   -25.1838
   XZ=     3.9814   YZ=   -17.9988   ZZ=   307.0066
   Eigenvalues:   272.4527   280.7706   327.8396
     11  O    Isotropic =   306.7182   Anisotropy =    44.8206
   XX=   327.2589   YX=    12.1542   ZX=     7.9344
   XY=    19.3697   YY=   309.8558   ZY=     9.1622
   XZ=   -17.3875   YZ=    12.1907   ZZ=   283.0398
   Eigenvalues:   277.2400   306.3160   336.5986
     12  H    Isotropic =    27.2684   Anisotropy =     7.1445
   XX=    31.2380   YX=    -0.8617   ZX=     1.7056
   XY=    -1.8929   YY=    26.2356   ZY=    -2.1422
   XZ=     1.3120   YZ=    -0.7319   ZZ=    24.3317
   Eigenvalues:    23.4913    26.2826    32.0314
     13  H    Isotropic =    27.9899   Anisotropy =    11.9788
   XX=    31.7675   YX=     3.4633   ZX=    -4.7767
   XY=     3.0299   YY=    25.7460   ZY=     0.0611
   XZ=    -5.6902   YZ=    -1.6323   ZZ=    26.4562
   Eigenvalues:    22.7541    25.2398    35.9758
     14  H    Isotropic =    26.8108   Anisotropy =     8.1415
   XX=    25.7489   YX=    -2.2357   ZX=    -3.9398
   XY=    -0.9276   YY=    25.9402   ZY=     2.2095
   XZ=    -3.2031   YZ=     2.0644   ZZ=    28.7432
   Eigenvalues:    23.3628    24.8311    32.2384
     15  H    Isotropic =    26.2480   Anisotropy =     6.6997
   XX=    25.6026   YX=    -1.4113   ZX=     0.1654
   XY=    -2.1747   YY=    30.0853   ZY=     0.6638
   XZ=     0.5481   YZ=    -0.3278   ZZ=    23.0560
   Eigenvalues:    22.9787    25.0508    30.7144
     16  H    Isotropic =    27.7400   Anisotropy =     7.2343
   XX=    25.9752   YX=     1.2835   ZX=     0.6249
   XY=     1.8589   YY=    27.9371   ZY=    -2.8590
   XZ=    -0.3444   YZ=    -4.6443   ZZ=    29.3078
   Eigenvalues:    23.9416    26.7156    32.5629
     17  H    Isotropic =    27.9999   Anisotropy =     5.0747
   XX=    29.3685   YX=    -0.4870   ZX=    -0.0413
   XY=    -1.5714   YY=    23.5066   ZY=     0.2422
   XZ=    -0.6957   YZ=     1.7514   ZZ=    31.1246
   Eigenvalues:    23.2233    29.3934    31.3831
     18  H    Isotropic =    27.2489   Anisotropy =     6.1643
   XX=    24.5701   YX=    -0.3765   ZX=     1.5607
   XY=    -0.4727   YY=    29.9775   ZY=     1.9510
   XZ=     1.2734   YZ=     2.8013   ZZ=    27.1989
   Eigenvalues:    23.6193    26.7688    31.3584
     19  H    Isotropic =    29.9995   Anisotropy =    13.0055
   XX=    22.7567   YX=    -0.3481   ZX=     3.2473
   XY=    -0.8519   YY=    33.0104   ZY=     4.9664
   XZ=     3.9614   YZ=     4.3425   ZZ=    34.2314
   Eigenvalues:    21.3806    29.9480    38.6699
     20  H    Isotropic =    29.0834   Anisotropy =    15.2789
   XX=    27.3690   YX=     7.3545   ZX=    -1.1664
   XY=     6.9005   YY=    25.7679   ZY=    -6.2259
   XZ=    -1.1830   YZ=    -6.0098   ZZ=    34.1135
   Eigenvalues:    18.3859    29.5951    39.2693
     21  H    Isotropic =    27.7875   Anisotropy =    16.3307
   XX=    28.7072   YX=     0.6338   ZX=     5.7436
   XY=    -0.2523   YY=    26.4800   ZY=     9.9624
   XZ=     5.6956   YZ=     8.5788   ZZ=    28.1753
   Eigenvalues:    16.7628    27.9251    38.6746
 End of Minotr Frequency-dependent properties file   721 does not exist.
 End of Minotr Frequency-dependent properties file   722 does not exist.

 **********************************************************************

            Population analysis using the SCF density.

 **********************************************************************

 Orbital symmetries:
       Occupied  (A) (A) (A) (A) (A) (A) (A) (A) (A) (A) (A) (A)
                 (A) (A) (A) (A) (A) (A) (A) (A) (A) (A) (A) (A)
                 (A) (A) (A) (A) (A) (A) (A) (A) (A) (A) (A) (A)
                 (A) (A) (A) (A) (A) (A) (A)
       Virtual   (A) (A) (A) (A) (A) (A) (A) (A) (A) (A) (A) (A)
                 (A) (A) (A) (A) (A) (A) (A) (A) (A) (A) (A) (A)
                 (A) (A) (A) (A) (A) (A) (A) (A) (A) (A) (A) (A)
                 (A) (A) (A) (A) (A) (A) (A) (A) (A) (A) (A) (A)
                 (A) (A) (A) (A) (A) (A) (A) (A) (A) (A) (A) (A)
                 (A) (A) (A) (A) (A) (A) (A) (A) (A) (A) (A) (A)
                 (A) (A) (A) (A) (A) (A) (A) (A) (A) (A) (A) (A)
                 (A) (A) (A) (A) (A) (A) (A) (A) (A) (A) (A) (A)
                 (A) (A) (A) (A) (A) (A) (A) (A) (A) (A) (A) (A)
                 (A) (A) (A) (A) (A) (A) (A) (A) (A) (A) (A) (A)
                 (A) (A) (A) (A) (A) (A) (A) (A) (A) (A) (A) (A)
                 (A) (A) (A) (A) (A) (A) (A) (A) (A) (A) (A) (A)
                 (A) (A) (A) (A) (A) (A) (A) (A) (A) (A) (A) (A)
                 (A) (A) (A) (A) (A) (A) (A) (A) (A) (A) (A) (A)
                 (A) (A) (A) (A) (A) (A) (A) (A) (A) (A) (A) (A)
                 (A) (A) (A) (A) (A) (A) (A) (A) (A) (A) (A) (A)
                 (A) (A) (A) (A) (A) (A) (A) (A) (A) (A) (A) (A)
                 (A) (A) (A) (A) (A) (A) (A) (A) (A) (A) (A) (A)
 The electronic state is 1-A.
 Alpha  occ. eigenvalues --  -19.28742 -19.27634 -19.27204 -19.27056 -19.26020
 Alpha  occ. eigenvalues --  -10.36142 -10.32361 -10.32224 -10.31984 -10.31366
 Alpha  occ. eigenvalues --  -10.30960  -1.14885  -1.08983  -1.07511  -1.05655
 Alpha  occ. eigenvalues --   -1.04447  -0.82333  -0.80702  -0.71170  -0.69044
 Alpha  occ. eigenvalues --   -0.65082  -0.61551  -0.59038  -0.55431  -0.53599
 Alpha  occ. eigenvalues --   -0.53357  -0.50261  -0.49963  -0.47210  -0.46361
 Alpha  occ. eigenvalues --   -0.44819  -0.43192  -0.42828  -0.42138  -0.38813
 Alpha  occ. eigenvalues --   -0.37641  -0.36704  -0.36062  -0.35517  -0.33181
 Alpha  occ. eigenvalues --   -0.31190  -0.29512  -0.27678
 Alpha virt. eigenvalues --    0.00610   0.00872   0.02299   0.02836   0.04030
 Alpha virt. eigenvalues --    0.04606   0.04872   0.05288   0.05346   0.07943
 Alpha virt. eigenvalues --    0.08358   0.09051   0.09828   0.10727   0.11023
 Alpha virt. eigenvalues --    0.12002   0.12441   0.13244   0.13587   0.13976
 Alpha virt. eigenvalues --    0.15026   0.15484   0.16239   0.16821   0.17213
 Alpha virt. eigenvalues --    0.17799   0.19146   0.19465   0.20070   0.20203
 Alpha virt. eigenvalues --    0.20977   0.21538   0.21922   0.23170   0.23887
 Alpha virt. eigenvalues --    0.24285   0.24964   0.25673   0.25980   0.27004
 Alpha virt. eigenvalues --    0.27667   0.28298   0.28996   0.29853   0.30655
 Alpha virt. eigenvalues --    0.31118   0.31565   0.32263   0.33176   0.33869
 Alpha virt. eigenvalues --    0.34203   0.35466   0.36129   0.36652   0.36806
 Alpha virt. eigenvalues --    0.37206   0.38669   0.39044   0.39367   0.40407
 Alpha virt. eigenvalues --    0.42231   0.43602   0.44785   0.47003   0.49109
 Alpha virt. eigenvalues --    0.50387   0.66187   0.66368   0.67145   0.69997
 Alpha virt. eigenvalues --    0.70910   0.72464   0.74186   0.76737   0.77195
 Alpha virt. eigenvalues --    0.79752   0.80077   0.82813   0.84756   0.85166
 Alpha virt. eigenvalues --    0.87048   0.91164   0.92856   0.94902   0.98391
 Alpha virt. eigenvalues --    1.01875   1.03673   1.04486   1.05801   1.06312
 Alpha virt. eigenvalues --    1.07073   1.09106   1.10917   1.12223   1.13606
 Alpha virt. eigenvalues --    1.20143   1.22519   1.23669   1.24965   1.26854
 Alpha virt. eigenvalues --    1.28043   1.28988   1.30458   1.32027   1.33493
 Alpha virt. eigenvalues --    1.34629   1.36110   1.38462   1.38851   1.41241
 Alpha virt. eigenvalues --    1.42605   1.44394   1.48116   1.50321   1.51524
 Alpha virt. eigenvalues --    1.51973   1.53289   1.57299   1.57539   1.60013
 Alpha virt. eigenvalues --    1.63096   1.64319   1.67002   1.67853   1.69595
 Alpha virt. eigenvalues --    1.71096   1.74397   1.74974   1.77143   1.77935
 Alpha virt. eigenvalues --    1.79060   1.80906   1.84380   1.85127   1.87055
 Alpha virt. eigenvalues --    1.89826   1.93682   1.94731   1.95622   1.98487
 Alpha virt. eigenvalues --    1.99374   1.99839   2.03916   2.06479   2.07115
 Alpha virt. eigenvalues --    2.11058   2.12545   2.14629   2.16000   2.17218
 Alpha virt. eigenvalues --    2.19993   2.21443   2.26039   2.28987   2.32944
 Alpha virt. eigenvalues --    2.33567   2.36830   2.37487   2.38554   2.42423
 Alpha virt. eigenvalues --    2.46563   2.47506   2.49494   2.52451   2.53997
 Alpha virt. eigenvalues --    2.55549   2.57056   2.57924   2.61181   2.61996
 Alpha virt. eigenvalues --    2.63898   2.66521   2.67528   2.68566   2.70466
 Alpha virt. eigenvalues --    2.71636   2.73471   2.74098   2.76137   2.80907
 Alpha virt. eigenvalues --    2.84717   2.85467   2.86771   2.88515   2.93435
 Alpha virt. eigenvalues --    2.94188   2.95026   2.97947   3.01013   3.02128
 Alpha virt. eigenvalues --    3.05862   3.08185   3.12236   3.19219   3.23419
 Alpha virt. eigenvalues --    3.34679   3.40728   3.45374   3.46406   3.49642
 Alpha virt. eigenvalues --    3.50529   3.52617   3.58413   3.60930   3.62917
 Alpha virt. eigenvalues --    4.27419   4.33327   4.44758   4.46675   4.54739
 Alpha virt. eigenvalues --    4.58722   4.64859   4.75990   4.91411   4.96173
 Alpha virt. eigenvalues --    5.10132
          Condensed to atoms (all electrons):
              1          2          3          4          5          6
     1  C    5.480290   0.080783  -0.255088   0.083483   0.054559  -0.321854
     2  C    0.080783   6.063891  -0.314646   0.029742   0.053639  -0.102645
     3  C   -0.255088  -0.314646   6.562486   0.148613  -1.007933   0.242246
     4  C    0.083483   0.029742   0.148613   6.221123  -0.470780  -0.248836
     5  C    0.054559   0.053639  -1.007933  -0.470780   7.349167  -0.455732
     6  C   -0.321854  -0.102645   0.242246  -0.248836  -0.455732   6.616484
     7  O   -0.001422   0.127210   0.193624   0.005958  -0.066352  -0.295978
     8  O    0.185791  -0.215923   0.252886  -0.017185  -0.127972   0.136268
     9  O    0.044450  -0.090501   0.022459  -0.047279  -0.013285   0.173780
    10  O    0.008487  -0.031474  -0.068407   0.126275   0.008935  -0.007419
    11  O   -0.001370  -0.007565  -0.149955  -0.055736   0.270046   0.060389
    12  H    0.447691  -0.088488   0.018416   0.000032   0.003082  -0.012994
    13  H    0.367146  -0.036618  -0.008294  -0.006490  -0.002323   0.054881
    14  H    0.012859   0.310795   0.000556   0.017528  -0.002280   0.002876
    15  H    0.002524   0.010264   0.380304   0.029077  -0.062683   0.017509
    16  H   -0.000389   0.010522   0.029573   0.374673  -0.037530  -0.037370
    17  H    0.012509  -0.013830  -0.086097  -0.072240   0.475232  -0.012795
    18  H    0.026091  -0.055798  -0.021501  -0.018560   0.044864   0.367969
    19  H    0.012493  -0.059022  -0.010629  -0.033284   0.041476   0.040617
    20  H   -0.002880   0.026554   0.026463   0.039350  -0.038148  -0.058595
    21  H   -0.000112  -0.001728  -0.013458  -0.074041   0.039983   0.014455
              7          8          9         10         11         12
     1  C   -0.001422   0.185791   0.044450   0.008487  -0.001370   0.447691
     2  C    0.127210  -0.215923  -0.090501  -0.031474  -0.007565  -0.088488
     3  C    0.193624   0.252886   0.022459  -0.068407  -0.149955   0.018416
     4  C    0.005958  -0.017185  -0.047279   0.126275  -0.055736   0.000032
     5  C   -0.066352  -0.127972  -0.013285   0.008935   0.270046   0.003082
     6  C   -0.295978   0.136268   0.173780  -0.007419   0.060389  -0.012994
     7  O    8.500539  -0.056991   0.021549   0.025470   0.009628   0.008629
     8  O   -0.056991   8.354912  -0.017248  -0.001642   0.007674  -0.048428
     9  O    0.021549  -0.017248   8.184111   0.004845  -0.002040   0.006488
    10  O    0.025470  -0.001642   0.004845   8.274825  -0.024235   0.000165
    11  O    0.009628   0.007674  -0.002040  -0.024235   8.225472   0.000020
    12  H    0.008629  -0.048428   0.006488   0.000165   0.000020   0.505590
    13  H   -0.007165  -0.037688  -0.001656  -0.000102   0.000114  -0.032395
    14  H   -0.038313   0.010430   0.004613   0.000084   0.000190   0.001497
    15  H   -0.054304  -0.032732  -0.000570  -0.002305   0.001979  -0.000220
    16  H    0.002568  -0.001502  -0.000511  -0.046035   0.003054  -0.000003
    17  H    0.016642   0.000298   0.003255   0.011550  -0.053710  -0.000043
    18  H    0.004560   0.000363  -0.051482  -0.004959  -0.000895  -0.000011
    19  H   -0.001483   0.017601   0.248610  -0.000346  -0.000656  -0.002844
    20  H    0.016246  -0.000542   0.000249   0.254216  -0.003835  -0.000010
    21  H    0.001094  -0.000208   0.000189   0.045692   0.249404   0.000000
             13         14         15         16         17         18
     1  C    0.367146   0.012859   0.002524  -0.000389   0.012509   0.026091
     2  C   -0.036618   0.310795   0.010264   0.010522  -0.013830  -0.055798
     3  C   -0.008294   0.000556   0.380304   0.029573  -0.086097  -0.021501
     4  C   -0.006490   0.017528   0.029077   0.374673  -0.072240  -0.018560
     5  C   -0.002323  -0.002280  -0.062683  -0.037530   0.475232   0.044864
     6  C    0.054881   0.002876   0.017509  -0.037370  -0.012795   0.367969
     7  O   -0.007165  -0.038313  -0.054304   0.002568   0.016642   0.004560
     8  O   -0.037688   0.010430  -0.032732  -0.001502   0.000298   0.000363
     9  O   -0.001656   0.004613  -0.000570  -0.000511   0.003255  -0.051482
    10  O   -0.000102   0.000084  -0.002305  -0.046035   0.011550  -0.004959
    11  O    0.000114   0.000190   0.001979   0.003054  -0.053710  -0.000895
    12  H   -0.032395   0.001497  -0.000220  -0.000003  -0.000043  -0.000011
    13  H    0.528647  -0.001589   0.000889   0.000002  -0.000023  -0.000070
    14  H   -0.001589   0.485518   0.000040  -0.000082   0.000033  -0.005383
    15  H    0.000889   0.000040   0.518909  -0.000127  -0.000304   0.000005
    16  H    0.000002  -0.000082  -0.000127   0.509231  -0.003759  -0.004161
    17  H   -0.000023   0.000033  -0.000304  -0.003759   0.526703  -0.000089
    18  H   -0.000070  -0.005383   0.000005  -0.004161  -0.000089   0.516647
    19  H    0.000256   0.000005   0.000069  -0.001575  -0.000479   0.006299
    20  H    0.000011  -0.000565  -0.000004   0.005200  -0.000385  -0.000204
    21  H    0.000000   0.000001  -0.000151  -0.000566   0.005417  -0.000013
             19         20         21
     1  C    0.012493  -0.002880  -0.000112
     2  C   -0.059022   0.026554  -0.001728
     3  C   -0.010629   0.026463  -0.013458
     4  C   -0.033284   0.039350  -0.074041
     5  C    0.041476  -0.038148   0.039983
     6  C    0.040617  -0.058595   0.014455
     7  O   -0.001483   0.016246   0.001094
     8  O    0.017601  -0.000542  -0.000208
     9  O    0.248610   0.000249   0.000189
    10  O   -0.000346   0.254216   0.045692
    11  O   -0.000656  -0.003835   0.249404
    12  H   -0.002844  -0.000010   0.000000
    13  H    0.000256   0.000011   0.000000
    14  H    0.000005  -0.000565   0.000001
    15  H    0.000069  -0.000004  -0.000151
    16  H   -0.001575   0.005200  -0.000566
    17  H   -0.000479  -0.000385   0.005417
    18  H    0.006299  -0.000204  -0.000013
    19  H    0.364308  -0.000013  -0.000005
    20  H   -0.000013   0.325531  -0.004589
    21  H   -0.000005  -0.004589   0.344768
 Mulliken atomic charges:
              1
     1  C   -0.236040
     2  C    0.304839
     3  C    0.058383
     4  C   -0.031424
     5  C   -0.055966
     6  C   -0.173257
     7  O   -0.411710
     8  O   -0.408163
     9  O   -0.490027
    10  O   -0.573621
    11  O   -0.527975
    12  H    0.193826
    13  H    0.182467
    14  H    0.201185
    15  H    0.191831
    16  H    0.198787
    17  H    0.192113
    18  H    0.196330
    19  H    0.378602
    20  H    0.415950
    21  H    0.393868
 Sum of Mulliken atomic charges =   0.00000
 Mulliken charges with hydrogens summed into heavy atoms:
              1
     1  C    0.140253
     2  C    0.506024
     3  C    0.250215
     4  C    0.167363
     5  C    0.136147
     6  C    0.023073
     7  O   -0.411710
     8  O   -0.408163
     9  O   -0.111425
    10  O   -0.157671
    11  O   -0.134106
 Sum of Mulliken charges with hydrogens summed into heavy atoms =   0.00000
 Electronic spatial extent (au):  <R**2>=           1390.1823
 Charge=              0.0000 electrons
 Dipole moment (field-independent basis, Debye):
    X=             -2.9165    Y=              0.3429    Z=              1.6051  Tot=              3.3467
 Quadrupole moment (field-independent basis, Debye-Ang):
   XX=            -67.8840   YY=            -72.2410   ZZ=            -62.9363
   XY=              1.6284   XZ=             -1.2408   YZ=             -0.1147
 Traceless Quadrupole moment (field-independent basis, Debye-Ang):
   XX=             -0.1969   YY=             -4.5539   ZZ=              4.7508
   XY=              1.6284   XZ=             -1.2408   YZ=             -0.1147
 Octapole moment (field-independent basis, Debye-Ang**2):
  XXX=            -25.5311  YYY=             -9.5889  ZZZ=             -1.2699  XYY=              2.8672
  XXY=             -1.0408  XXZ=             14.2059  XZZ=             -2.8200  YZZ=              4.7983
  YYZ=             10.0557  XYZ=            -10.5300
 Hexadecapole moment (field-independent basis, Debye-Ang**3):
 XXXX=           -834.3628 YYYY=           -563.6071 ZZZZ=           -291.6122 XXXY=             23.1179
 XXXZ=             25.3902 YYYX=              7.4403 YYYZ=              5.5916 ZZZX=             13.7936
 ZZZY=              6.1887 XXYY=           -272.0157 XXZZ=           -191.9789 YYZZ=           -161.2981
 XXYZ=            -22.2910 YYXZ=            -19.6339 ZZXY=             -3.6614
 N-N= 7.334653999900D+02 E-N=-2.896128615028D+03  KE= 6.052044528401D+02
 1\1\GINC-COMPUTE-8-21\SP\RmPW1PW91\6-31+G(d,p)\C6H10O5\MMARCARINO.IQUI
 R\12-Apr-2019\0\\# mpw1pw91/6-31+g** nmr scrf=(pcm,solvent=water)\\com
 ment\\0,1\C,0,-2.133231,-0.625041,0.106368\C,0,-1.200573,0.242913,0.93
 539\C,0,0.061489,-1.356115,0.021484\C,0,0.956505,0.971688,-0.2232\C,0,
 1.070541,-0.483257,-0.760117\C,0,-0.503068,1.372339,0.093721\O,0,-0.20
 9019,-0.757562,1.29036\O,0,-1.19012,-1.379221,-0.679977\O,0,-1.215932,
 1.724106,-1.088163\O,0,1.785037,1.097315,0.940694\O,0,2.40036,-0.94851
 2,-0.618244\H,0,-2.79237,-0.073111,-0.563908\H,0,-2.72332,-1.288814,0.
 74816\H,0,-1.637197,0.615464,1.861898\H,0,0.436083,-2.369653,0.187664\
 H,0,1.362472,1.677826,-0.951157\H,0,0.81299,-0.534852,-1.823497\H,0,-0
 .466476,2.290126,0.685502\H,0,-1.20534,0.959036,-1.687973\H,0,1.37266,
 0.529873,1.619426\H,0,2.767912,-0.430066,0.124657\\Version=EM64L-G09Re
 vC.01\State=1-A\HF=-610.6418761\RMSD=4.895e-09\Dipole=-1.1474533,0.134
 9077,0.6315029\Quadrupole=-0.1464015,-3.385707,3.5321085,1.2106663,-0.
 9225118,-0.0852411\PG=C01 [X(C6H10O5)]\\@


 IF IT'S NOT TRUE, IT'S WELL INVENTED -- DANTE
 Job cpu time:  0 days  0 hours 18 minutes 54.7 seconds.
 File lengths (MBytes):  RWF=     82 Int=      0 D2E=      0 Chk=      5 Scr=      1
 Normal termination of Gaussian 09 at Fri Apr 12 11:22:16 2019.
