 Entering Gaussian System, Link 0=g09
 Input=/home/mmarcarino.iquir/NMR/03_RRS_Levo09_OPTB_nmr.gjc
 Output=/home/mmarcarino.iquir/NMR/03_RRS_Levo09_OPTB_nmr.log
 Initial command:
 /share/apps/Gaussian09/EM64T.SSE4.2-enabled/g09/l1.exe /tmp/Gau-56455.inp -scrdir=/tmp/
 Entering Link 1 = /share/apps/Gaussian09/EM64T.SSE4.2-enabled/g09/l1.exe PID=     56456.
  
 Copyright (c) 1988,1990,1992,1993,1995,1998,2003,2009,2011,
            Gaussian, Inc.  All Rights Reserved.
  
 This is part of the Gaussian(R) 09 program.  It is based on
 the Gaussian(R) 03 system (copyright 2003, Gaussian, Inc.),
 the Gaussian(R) 98 system (copyright 1998, Gaussian, Inc.),
 the Gaussian(R) 94 system (copyright 1995, Gaussian, Inc.),
 the Gaussian 92(TM) system (copyright 1992, Gaussian, Inc.),
 the Gaussian 90(TM) system (copyright 1990, Gaussian, Inc.),
 the Gaussian 88(TM) system (copyright 1988, Gaussian, Inc.),
 the Gaussian 86(TM) system (copyright 1986, Carnegie Mellon
 University), and the Gaussian 82(TM) system (copyright 1983,
 Carnegie Mellon University). Gaussian is a federally registered
 trademark of Gaussian, Inc.
  
 This software contains proprietary and confidential information,
 including trade secrets, belonging to Gaussian, Inc.
  
 This software is provided under written license and may be
 used, copied, transmitted, or stored only in accord with that
 written license.
  
 The following legend is applicable only to US Government
 contracts under FAR:
  
                    RESTRICTED RIGHTS LEGEND
  
 Use, reproduction and disclosure by the US Government is
 subject to restrictions as set forth in subparagraphs (a)
 and (c) of the Commercial Computer Software - Restricted
 Rights clause in FAR 52.227-19.
  
 Gaussian, Inc.
 340 Quinnipiac St., Bldg. 40, Wallingford CT 06492
  
  
 ---------------------------------------------------------------
 Warning -- This program may not be used in any manner that
 competes with the business of Gaussian, Inc. or will provide
 assistance to any competitor of Gaussian, Inc.  The licensee
 of this program is prohibited from giving any competitor of
 Gaussian, Inc. access to this program.  By using this program,
 the user acknowledges that Gaussian, Inc. is engaged in the
 business of creating and licensing software in the field of
 computational chemistry and represents and warrants to the
 licensee that it is not a competitor of Gaussian, Inc. and that
 it will not use this program in any manner prohibited above.
 ---------------------------------------------------------------
  

 Cite this work as:
 Gaussian 09, Revision C.01,
 M. J. Frisch, G. W. Trucks, H. B. Schlegel, G. E. Scuseria, 
 M. A. Robb, J. R. Cheeseman, G. Scalmani, V. Barone, B. Mennucci, 
 G. A. Petersson, H. Nakatsuji, M. Caricato, X. Li, H. P. Hratchian, 
 A. F. Izmaylov, J. Bloino, G. Zheng, J. L. Sonnenberg, M. Hada, 
 M. Ehara, K. Toyota, R. Fukuda, J. Hasegawa, M. Ishida, T. Nakajima, 
 Y. Honda, O. Kitao, H. Nakai, T. Vreven, J. A. Montgomery, Jr., 
 J. E. Peralta, F. Ogliaro, M. Bearpark, J. J. Heyd, E. Brothers, 
 K. N. Kudin, V. N. Staroverov, T. Keith, R. Kobayashi, J. Normand, 
 K. Raghavachari, A. Rendell, J. C. Burant, S. S. Iyengar, J. Tomasi, 
 M. Cossi, N. Rega, J. M. Millam, M. Klene, J. E. Knox, J. B. Cross, 
 V. Bakken, C. Adamo, J. Jaramillo, R. Gomperts, R. E. Stratmann, 
 O. Yazyev, A. J. Austin, R. Cammi, C. Pomelli, J. W. Ochterski, 
 R. L. Martin, K. Morokuma, V. G. Zakrzewski, G. A. Voth, 
 P. Salvador, J. J. Dannenberg, S. Dapprich, A. D. Daniels, 
 O. Farkas, J. B. Foresman, J. V. Ortiz, J. Cioslowski, 
 and D. J. Fox, Gaussian, Inc., Wallingford CT, 2010.
 
 ******************************************
 Gaussian 09:  EM64L-G09RevC.01 23-Sep-2011
                12-Apr-2019 
 ******************************************
 %nprocshared=4
 Will use up to    4 processors via shared memory.
 ------------------------------------------------
 # mpw1pw91/6-31+g** nmr scrf=(pcm,solvent=water)
 ------------------------------------------------
 1/38=1/1;
 2/12=2,17=6,18=5,40=1/2;
 3/5=1,6=6,7=111,11=2,16=1,25=1,30=1,70=2201,72=1,74=-7/1,2,8,3;
 4//1;
 5/5=2,38=5,53=1/2;
 8/6=1,10=90,11=11/1;
 10/13=100,45=16/2;
 6/7=2,8=2,9=2,10=2,28=1/1;
 99/9=1/99;
 -------
 comment
 -------
 Charge =  0 Multiplicity = 1
 Symbolic Z-Matrix:
 6                    -1.73155   1.08178  -0.54296 
 6                    -0.9179    0.92038   0.74678 
 6                    -1.15831  -1.11274  -0.13792 
 6                     1.04413  -0.01066  -0.55475 
 6                     0.33663  -1.37518  -0.40472 
 6                     0.61047   0.97057   0.54863 
 8                    -1.25936  -0.43549   1.11082 
 8                    -1.72495  -0.24344  -1.11068 
 8                     1.11492   2.28126   0.30727 
 8                     2.45078  -0.19755  -0.55627 
 8                     0.85763  -2.17597   0.64724 
 1                    -1.29878   1.78689  -1.25995 
 1                    -2.76271   1.38259  -0.33045 
 1                    -1.23498   1.58691   1.5503 
 1                    -1.73212  -2.04068  -0.07702 
 1                     0.72084   0.40597  -1.52281 
 1                     0.46929  -1.9543   -1.32367 
 1                     1.07316   0.6629    1.49217 
 1                     0.78411   2.5866   -0.5547 
 1                     2.83745   0.69473  -0.56874 
 1                     0.53078  -1.78697   1.47745 
 
                          Input orientation:                          
 ---------------------------------------------------------------------
 Center     Atomic      Atomic             Coordinates (Angstroms)
 Number     Number       Type             X           Y           Z
 ---------------------------------------------------------------------
      1          6           0       -1.731554    1.081776   -0.542959
      2          6           0       -0.917903    0.920376    0.746784
      3          6           0       -1.158306   -1.112737   -0.137921
      4          6           0        1.044129   -0.010656   -0.554754
      5          6           0        0.336633   -1.375179   -0.404720
      6          6           0        0.610467    0.970572    0.548632
      7          8           0       -1.259360   -0.435492    1.110820
      8          8           0       -1.724952   -0.243438   -1.110677
      9          8           0        1.114919    2.281257    0.307270
     10          8           0        2.450778   -0.197550   -0.556270
     11          8           0        0.857634   -2.175971    0.647241
     12          1           0       -1.298778    1.786886   -1.259954
     13          1           0       -2.762708    1.382591   -0.330446
     14          1           0       -1.234980    1.586906    1.550300
     15          1           0       -1.732116   -2.040675   -0.077023
     16          1           0        0.720842    0.405974   -1.522808
     17          1           0        0.469287   -1.954296   -1.323673
     18          1           0        1.073164    0.662898    1.492165
     19          1           0        0.784114    2.586600   -0.554703
     20          1           0        2.837446    0.694727   -0.568740
     21          1           0        0.530775   -1.786967    1.477452
 ---------------------------------------------------------------------
                    Distance matrix (angstroms):
                    1          2          3          4          5
     1  C    0.000000
     2  C    1.533465   0.000000
     3  C    2.304030   2.230257   0.000000
     4  C    2.982945   2.531875   2.497809   0.000000
     5  C    3.214519   2.858215   1.541071   1.544339   0.000000
     6  C    2.586310   1.541979   2.817816   1.538939   2.546844
     7  O    2.293481   1.444816   1.424158   2.874141   2.393129
     8  O    1.441714   2.335798   1.422330   2.833910   2.455473
     9  O    3.203756   2.485465   4.109129   2.449686   3.805546
    10  O    4.373643   3.780968   3.746741   1.419011   2.424745
    11  O    4.328208   3.570687   2.410593   2.483578   1.421032
    12  H    1.094786   2.218762   3.112315   3.036063   3.661236
    13  H    1.094957   2.185720   2.972849   4.059983   4.149304
    14  H    2.209859   1.091072   3.184971   3.489670   3.881497
    15  H    3.157023   3.179532   1.092719   3.472282   2.197724
    16  H    2.725997   2.846251   2.784886   1.102372   2.137813
    17  H    3.830267   3.804580   2.182496   2.167814   1.094280
    18  H    3.490506   2.141550   3.284740   2.155086   2.880001
    19  H    2.931419   2.714228   4.199023   2.610239   3.989790
    20  H    4.585437   3.985495   4.406650   1.927108   3.250458
    21  H    4.174911   3.156303   2.432491   2.747485   1.936448
                    6          7          8          9         10
     6  C    0.000000
     7  O    2.406101   0.000000
     8  O    3.111480   2.277874   0.000000
     9  O    1.424999   3.696433   4.055802   0.000000
    10  O    2.443780   4.074424   4.212623   2.945285   0.000000
    11  O    3.157776   2.779539   3.673515   4.477573   2.810818
    12  H    2.753646   3.249783   2.079934   2.920022   4.300271
    13  H    3.510106   2.764549   2.080785   4.031163   5.452364
    14  H    2.188351   2.069742   3.266654   2.747594   4.605077
    15  H    3.866102   2.052092   2.073295   5.189642   4.596019
    16  H    2.149841   3.400774   2.563883   2.649749   2.071501
    17  H    3.475674   3.349887   2.790535   4.584400   2.757058
    18  H    1.094991   2.606253   3.927555   2.006192   2.614245
    19  H    1.964446   4.010336   3.822778   0.972452   3.244883
    20  H    2.506800   4.569698   4.689278   2.500314   0.972536
    21  H    2.910855   2.272771   3.764199   4.273289   3.216937
                   11         12         13         14         15
    11  O    0.000000
    12  H    4.898136   0.000000
    13  H    5.169730   1.780598   0.000000
    14  H    4.399295   2.818083   2.431646   0.000000
    15  H    2.692521   4.029557   3.584005   4.006828   0.000000
    16  H    3.375539   2.460666   3.809282   3.829338   3.754116
    17  H    2.021004   4.138424   4.750485   4.868712   2.531358
    18  H    2.969769   3.803106   4.307410   2.486906   4.200149
    19  H    4.912449   2.339949   3.752316   3.083369   5.288787
    20  H    3.693125   4.333467   5.647271   4.676641   5.348374
    21  H    0.973351   4.859329   4.915447   3.808703   2.757070
                   16         17         18         19         20
    16  H    0.000000
    17  H    2.381976   0.000000
    18  H    3.046343   3.891441   0.000000
    19  H    2.386705   4.616294   2.823800   0.000000
    20  H    2.339580   3.632551   2.713122   2.792052   0.000000
    21  H    3.721112   2.806792   2.509231   4.829278   3.958085
                   21
    21  H    0.000000
 Stoichiometry    C6H10O5
 Framework group  C1[X(C6H10O5)]
 Deg. of freedom    57
 Full point group                 C1      NOp   1
 Largest Abelian subgroup         C1      NOp   1
 Largest concise Abelian subgroup C1      NOp   1
                         Standard orientation:                         
 ---------------------------------------------------------------------
 Center     Atomic      Atomic             Coordinates (Angstroms)
 Number     Number       Type             X           Y           Z
 ---------------------------------------------------------------------
      1          6           0       -1.731553    1.081777   -0.542959
      2          6           0       -0.917903    0.920376    0.746784
      3          6           0       -1.158306   -1.112737   -0.137921
      4          6           0        1.044129   -0.010657   -0.554754
      5          6           0        0.336632   -1.375179   -0.404720
      6          6           0        0.610468    0.970572    0.548632
      7          8           0       -1.259360   -0.435491    1.110820
      8          8           0       -1.724952   -0.243437   -1.110677
      9          8           0        1.114920    2.281256    0.307270
     10          8           0        2.450778   -0.197551   -0.556270
     11          8           0        0.857633   -2.175971    0.647241
     12          1           0       -1.298777    1.786887   -1.259954
     13          1           0       -2.762707    1.382592   -0.330446
     14          1           0       -1.234979    1.586907    1.550300
     15          1           0       -1.732117   -2.040674   -0.077023
     16          1           0        0.720842    0.405974   -1.522808
     17          1           0        0.469286   -1.954296   -1.323673
     18          1           0        1.073164    0.662897    1.492165
     19          1           0        0.784115    2.586600   -0.554703
     20          1           0        2.837446    0.694726   -0.568740
     21          1           0        0.530774   -1.786967    1.477452
 ---------------------------------------------------------------------
 Rotational constants (GHZ):      1.4481458      1.2880508      0.8865753
 Standard basis: 6-31+G(d,p) (6D, 7F)
 There are   259 symmetry adapted basis functions of A   symmetry.
 Integral buffers will be    131072 words long.
 Raffenetti 2 integral format.
 Two-electron integral symmetry is turned on.
   259 basis functions,   422 primitive gaussians,   259 cartesian basis functions
    43 alpha electrons       43 beta electrons
       nuclear repulsion energy       726.4709406259 Hartrees.
 NAtoms=   21 NActive=   21 NUniq=   21 SFac= 1.00D+00 NAtFMM=   60 NAOKFM=F Big=F
 ------------------------------------------------------------------------------
 Polarizable Continuum Model (PCM)
 =================================
 Model                : PCM.
 Atomic radii         : UFF (Universal Force Field).
 Polarization charges : Total charges.
 Charge compensation  : None.
 Solution method      : Matrix inversion.
 Cavity type          : Scaled VdW (van der Waals Surface) (Alpha=1.100).
 Cavity algorithm     : GePol (No added spheres)
                        Default sphere list used, NSphG=   21.
                        Lebedev-Laikov grids with approx.  5.0 points / Ang**2.
                        Smoothing algorithm: Karplus/York (Gamma=1.0000).
                        Polarization charges: spherical gaussians, with
                                              point-specific exponents (IZeta= 3).
                        Self-potential: point-specific (ISelfS= 7).
                        Self-field    : sphere-specific E.n sum rule (ISelfD= 2).
 Solvent              : Water, Eps=  78.355300 Eps(inf)=   1.777849
 ------------------------------------------------------------------------------
 One-electron integrals computed using PRISM.
 NBasis=   259 RedAO= T  NBF=   259
 NBsUse=   259 1.00D-06 NBFU=   259
 Harris functional with IExCor=  908 diagonalized for initial guess.
 ExpMin= 4.38D-02 ExpMax= 5.48D+03 ExpMxC= 8.25D+02 IAcc=2 IRadAn=         4 AccDes= 0.00D+00
 HarFok:  IExCor=  908 AccDes= 0.00D+00 IRadAn=         4 IDoV= 1
 ScaDFX=  1.000000  1.000000  1.000000  1.000000
 FoFCou: FMM=F IPFlag=           0 FMFlag=      100000 FMFlg1=           0
         NFxFlg=           0 DoJE=T BraDBF=F KetDBF=T FulRan=T
         Omega=  0.000000  0.000000  1.000000  0.000000  0.000000 ICntrl=     500 IOpCl=  0
         NMat0=    1 NMatS0=    1 NMatT0=    0 NMatD0=    1 NMtDS0=    0 NMtDT0=    0
         I1Cent=           4 NGrid=           0.
 Petite list used in FoFCou.
 Initial guess orbital symmetries:
       Occupied  (A) (A) (A) (A) (A) (A) (A) (A) (A) (A) (A) (A)
                 (A) (A) (A) (A) (A) (A) (A) (A) (A) (A) (A) (A)
                 (A) (A) (A) (A) (A) (A) (A) (A) (A) (A) (A) (A)
                 (A) (A) (A) (A) (A) (A) (A)
       Virtual   (A) (A) (A) (A) (A) (A) (A) (A) (A) (A) (A) (A)
                 (A) (A) (A) (A) (A) (A) (A) (A) (A) (A) (A) (A)
                 (A) (A) (A) (A) (A) (A) (A) (A) (A) (A) (A) (A)
                 (A) (A) (A) (A) (A) (A) (A) (A) (A) (A) (A) (A)
                 (A) (A) (A) (A) (A) (A) (A) (A) (A) (A) (A) (A)
                 (A) (A) (A) (A) (A) (A) (A) (A) (A) (A) (A) (A)
                 (A) (A) (A) (A) (A) (A) (A) (A) (A) (A) (A) (A)
                 (A) (A) (A) (A) (A) (A) (A) (A) (A) (A) (A) (A)
                 (A) (A) (A) (A) (A) (A) (A) (A) (A) (A) (A) (A)
                 (A) (A) (A) (A) (A) (A) (A) (A) (A) (A) (A) (A)
                 (A) (A) (A) (A) (A) (A) (A) (A) (A) (A) (A) (A)
                 (A) (A) (A) (A) (A) (A) (A) (A) (A) (A) (A) (A)
                 (A) (A) (A) (A) (A) (A) (A) (A) (A) (A) (A) (A)
                 (A) (A) (A) (A) (A) (A) (A) (A) (A) (A) (A) (A)
                 (A) (A) (A) (A) (A) (A) (A) (A) (A) (A) (A) (A)
                 (A) (A) (A) (A) (A) (A) (A) (A) (A) (A) (A) (A)
                 (A) (A) (A) (A) (A) (A) (A) (A) (A) (A) (A) (A)
                 (A) (A) (A) (A) (A) (A) (A) (A) (A) (A) (A) (A)
 The electronic state of the initial guess is 1-A.
 Requested convergence on RMS density matrix=1.00D-08 within 128 cycles.
 Requested convergence on MAX density matrix=1.00D-06.
 Requested convergence on             energy=1.00D-06.
 No special actions if energy rises.
 Error on total polarization charges =  0.01155
 SCF Done:  E(RmPW1PW91) =  -610.648393179     A.U. after   12 cycles
             Convg  =    0.5485D-08             -V/T =  2.0090
 Range of M.O.s used for correlation:     1   259
 NBasis=   259 NAE=    43 NBE=    43 NFC=     0 NFV=     0
 NROrb=    259 NOA=    43 NOB=    43 NVA=   216 NVB=   216

 **** Warning!!: The largest alpha MO coefficient is  0.65316405D+02

 NEqPCM:  Using equilibrium solvation (IEInf=0, Eps=  78.3553, EpsInf=   1.7778)
          Differentiating once with respect to magnetic field using GIAOs.
          Electric field/nuclear overlap derivatives assumed to be zero.
 FoFCou: FMM=F IPFlag=           0 FMFlag=    10101102 FMFlg1=           0
         NFxFlg=    40000000 DoJE=F BraDBF=F KetDBF=T FulRan=T
         Omega=  0.000000  0.000000  1.000000  0.000000  0.000000 ICntrl=    6100 IOpCl=  0
         NMat0=    1 NMatS0=    1 NMatT0=    0 NMatD0=    1 NMtDS0=    0 NMtDT0=    0
         I1Cent=           7 NGrid=        1531.
 Symmetry not used in FoFCou.
          There are     3 degrees of freedom in the 1st order CPHF.  IDoFFX=0.
      3 vectors produced by pass  0 Test12= 3.10D-13 3.33D-08 XBig12= 2.03D+01 8.54D-01.
 AX will form     3 AO Fock derivatives at one time.
      3 vectors produced by pass  1 Test12= 3.10D-13 3.33D-08 XBig12= 4.87D-02 3.12D-02.
      3 vectors produced by pass  2 Test12= 3.10D-13 3.33D-08 XBig12= 1.10D-04 1.54D-03.
      3 vectors produced by pass  3 Test12= 3.10D-13 3.33D-08 XBig12= 5.26D-07 1.22D-04.
      3 vectors produced by pass  4 Test12= 3.10D-13 3.33D-08 XBig12= 1.68D-09 6.72D-06.
      3 vectors produced by pass  5 Test12= 3.10D-13 3.33D-08 XBig12= 5.22D-12 4.23D-07.
 Inverted reduced A of dimension    18 with in-core refinement.
 Calculating GIAO nuclear magnetic shielding tensors.
 SCF GIAO Magnetic shielding tensor (ppm):
      1  C    Isotropic =   132.2890   Anisotropy =    68.1116
   XX=   107.7397   YX=    -7.3256   ZX=    10.0945
   XY=    -1.2247   YY=   164.0761   ZY=    28.6460
   XZ=     2.8130   YZ=    24.8820   ZZ=   125.0511
   Eigenvalues:   101.6743   117.4959   177.6967
      2  C    Isotropic =   119.2514   Anisotropy =    59.6111
   XX=   107.0066   YX=    21.3909   ZX=     5.8579
   XY=    11.5793   YY=   150.9366   ZY=   -16.9469
   XZ=    -0.6629   YZ=   -10.5459   ZZ=    99.8111
   Eigenvalues:    92.3896   106.3725   158.9921
      3  C    Isotropic =    92.0310   Anisotropy =    32.4778
   XX=    79.4169   YX=   -23.7219   ZX=    10.8766
   XY=   -13.3226   YY=    88.8187   ZY=   -11.7411
   XZ=     8.3342   YZ=     8.4827   ZZ=   107.8574
   Eigenvalues:    63.9904    98.4197   113.6828
      4  C    Isotropic =   123.1109   Anisotropy =    31.6622
   XX=   141.3210   YX=   -11.8476   ZX=    -4.0361
   XY=    -5.5938   YY=   117.7620   ZY=     3.4789
   XZ=     3.4597   YZ=     0.1826   ZZ=   110.2496
   Eigenvalues:   109.7043   115.4092   144.2190
      5  C    Isotropic =   122.9185   Anisotropy =    37.3111
   XX=   123.5966   YX=    -8.0948   ZX=    19.3397
   XY=    -2.0359   YY=   122.0898   ZY=   -16.0745
   XZ=     9.5611   YZ=   -17.7037   ZZ=   123.0692
   Eigenvalues:   102.9809   117.9820   147.7926
      6  C    Isotropic =   122.1924   Anisotropy =    36.5280
   XX=   121.0330   YX=    15.4361   ZX=    -7.2802
   XY=    -0.4130   YY=   141.1031   ZY=    -1.2780
   XZ=   -10.8350   YZ=   -15.8017   ZZ=   104.4413
   Eigenvalues:    99.8351   120.1978   146.5444
      7  O    Isotropic =   237.0635   Anisotropy =    56.4755
   XX=   188.2347   YX=    -9.1913   ZX=    11.8219
   XY=   -15.8067   YY=   272.3892   ZY=    10.6335
   XZ=    26.3445   YZ=   -11.5450   ZZ=   250.5665
   Eigenvalues:   181.2967   255.1800   274.7138
      8  O    Isotropic =   263.9530   Anisotropy =   112.3681
   XX=   200.6949   YX=   -32.1287   ZX=    43.4936
   XY=   -29.6034   YY=   267.2161   ZY=    -3.5805
   XZ=    47.2897   YZ=    25.0161   ZZ=   323.9478
   Eigenvalues:   174.2961   278.6978   338.8651
      9  O    Isotropic =   300.9305   Anisotropy =    62.7206
   XX=   262.9760   YX=   -10.7222   ZX=    19.9224
   XY=     8.6305   YY=   313.1319   ZY=   -10.2493
   XZ=    16.8681   YZ=   -26.6749   ZZ=   326.6836
   Eigenvalues:   257.7670   302.2803   342.7442
     10  O    Isotropic =   307.1423   Anisotropy =    33.5515
   XX=   317.0592   YX=    11.3531   ZX=    -2.2109
   XY=    10.1528   YY=   309.7070   ZY=    12.8859
   XZ=    15.4277   YZ=    12.0094   ZZ=   294.6608
   Eigenvalues:   287.6300   304.2869   329.5100
     11  O    Isotropic =   304.2506   Anisotropy =    49.4898
   XX=   286.4688   YX=   -18.6868   ZX=   -21.4274
   XY=   -24.1683   YY=   305.4830   ZY=    12.5816
   XZ=    -9.0275   YZ=     7.4190   ZZ=   320.7999
   Eigenvalues:   271.3101   304.1978   337.2438
     12  H    Isotropic =    27.6760   Anisotropy =     6.5124
   XX=    26.2226   YX=     0.1882   ZX=     0.4159
   XY=     0.0898   YY=    30.4768   ZY=    -3.7805
   XZ=     1.6179   YZ=    -2.0896   ZZ=    26.3285
   Eigenvalues:    24.3146    26.6957    32.0175
     13  H    Isotropic =    27.7233   Anisotropy =    11.6683
   XX=    31.3971   YX=    -4.8328   ZX=     0.7683
   XY=    -5.8428   YY=    28.1868   ZY=     1.8029
   XZ=    -1.0382   YZ=     2.0702   ZZ=    23.5859
   Eigenvalues:    22.3197    25.3480    35.5021
     14  H    Isotropic =    27.1228   Anisotropy =     7.7182
   XX=    25.4846   YX=    -1.2047   ZX=    -2.2359
   XY=    -0.6468   YY=    28.1343   ZY=     4.5889
   XZ=    -1.8156   YZ=     2.7792   ZZ=    27.7493
   Eigenvalues:    23.6982    25.4018    32.2682
     15  H    Isotropic =    26.1203   Anisotropy =     8.0292
   XX=    25.4516   YX=     3.0079   ZX=     0.9987
   XY=     3.3977   YY=    29.6028   ZY=     0.6095
   XZ=     1.3462   YZ=     0.4449   ZZ=    23.3067
   Eigenvalues:    22.6274    24.2605    31.4732
     16  H    Isotropic =    28.0108   Anisotropy =     5.1767
   XX=    31.3342   YX=    -0.8500   ZX=     1.0820
   XY=    -0.7330   YY=    24.1419   ZY=    -1.2721
   XZ=    -0.7626   YZ=    -1.8589   ZZ=    28.5561
   Eigenvalues:    23.5786    28.9917    31.4619
     17  H    Isotropic =    27.6636   Anisotropy =     6.3518
   XX=    24.3009   YX=    -0.1918   ZX=     1.0594
   XY=    -1.0328   YY=    28.4817   ZY=     2.1066
   XZ=     0.2223   YZ=     2.6905   ZZ=    30.2083
   Eigenvalues:    24.0243    27.0684    31.8982
     18  H    Isotropic =    27.8664   Anisotropy =     2.8458
   XX=    26.2675   YX=     1.4964   ZX=     1.0916
   XY=     1.5104   YY=    28.4845   ZY=    -1.7227
   XZ=     1.5437   YZ=    -0.4411   ZZ=    28.8473
   Eigenvalues:    24.8160    29.0197    29.7636
     19  H    Isotropic =    30.6847   Anisotropy =    16.6602
   XX=    25.7629   YX=     0.8539   ZX=     4.1583
   XY=     0.5574   YY=    30.8267   ZY=    -7.6023
   XZ=     4.1680   YZ=    -7.9109   ZZ=    35.4644
   Eigenvalues:    22.1281    28.1344    41.7914
     20  H    Isotropic =    29.0920   Anisotropy =    17.8249
   XX=    32.1455   YX=     6.8591   ZX=    -2.0151
   XY=     6.1221   YY=    36.1041   ZY=    -0.3672
   XZ=    -3.2552   YZ=     1.3299   ZZ=    19.0265
   Eigenvalues:    18.3236    27.9772    40.9753
     21  H    Isotropic =    29.9226   Anisotropy =    14.4916
   XX=    24.5675   YX=    -5.0085   ZX=    -2.7441
   XY=    -4.5410   YY=    27.0804   ZY=     2.3071
   XZ=    -3.3874   YZ=     1.8110   ZZ=    38.1199
   Eigenvalues:    20.8014    29.3827    39.5837
 End of Minotr Frequency-dependent properties file   721 does not exist.
 End of Minotr Frequency-dependent properties file   722 does not exist.

 **********************************************************************

            Population analysis using the SCF density.

 **********************************************************************

 Orbital symmetries:
       Occupied  (A) (A) (A) (A) (A) (A) (A) (A) (A) (A) (A) (A)
                 (A) (A) (A) (A) (A) (A) (A) (A) (A) (A) (A) (A)
                 (A) (A) (A) (A) (A) (A) (A) (A) (A) (A) (A) (A)
                 (A) (A) (A) (A) (A) (A) (A)
       Virtual   (A) (A) (A) (A) (A) (A) (A) (A) (A) (A) (A) (A)
                 (A) (A) (A) (A) (A) (A) (A) (A) (A) (A) (A) (A)
                 (A) (A) (A) (A) (A) (A) (A) (A) (A) (A) (A) (A)
                 (A) (A) (A) (A) (A) (A) (A) (A) (A) (A) (A) (A)
                 (A) (A) (A) (A) (A) (A) (A) (A) (A) (A) (A) (A)
                 (A) (A) (A) (A) (A) (A) (A) (A) (A) (A) (A) (A)
                 (A) (A) (A) (A) (A) (A) (A) (A) (A) (A) (A) (A)
                 (A) (A) (A) (A) (A) (A) (A) (A) (A) (A) (A) (A)
                 (A) (A) (A) (A) (A) (A) (A) (A) (A) (A) (A) (A)
                 (A) (A) (A) (A) (A) (A) (A) (A) (A) (A) (A) (A)
                 (A) (A) (A) (A) (A) (A) (A) (A) (A) (A) (A) (A)
                 (A) (A) (A) (A) (A) (A) (A) (A) (A) (A) (A) (A)
                 (A) (A) (A) (A) (A) (A) (A) (A) (A) (A) (A) (A)
                 (A) (A) (A) (A) (A) (A) (A) (A) (A) (A) (A) (A)
                 (A) (A) (A) (A) (A) (A) (A) (A) (A) (A) (A) (A)
                 (A) (A) (A) (A) (A) (A) (A) (A) (A) (A) (A) (A)
                 (A) (A) (A) (A) (A) (A) (A) (A) (A) (A) (A) (A)
                 (A) (A) (A) (A) (A) (A) (A) (A) (A) (A) (A) (A)
 The electronic state is 1-A.
 Alpha  occ. eigenvalues --  -19.28643 -19.27563 -19.27439 -19.26393 -19.26253
 Alpha  occ. eigenvalues --  -10.36409 -10.32379 -10.31828 -10.31540 -10.31509
 Alpha  occ. eigenvalues --  -10.31377  -1.14965  -1.08699  -1.07316  -1.05862
 Alpha  occ. eigenvalues --   -1.04631  -0.82708  -0.81270  -0.71536  -0.68221
 Alpha  occ. eigenvalues --   -0.65547  -0.61934  -0.58290  -0.55139  -0.54324
 Alpha  occ. eigenvalues --   -0.53258  -0.51853  -0.48353  -0.47638  -0.46493
 Alpha  occ. eigenvalues --   -0.44627  -0.44101  -0.42847  -0.40219  -0.39592
 Alpha  occ. eigenvalues --   -0.38480  -0.37806  -0.35475  -0.34977  -0.31879
 Alpha  occ. eigenvalues --   -0.31071  -0.29159  -0.28190
 Alpha virt. eigenvalues --    0.00433   0.01357   0.02040   0.02199   0.04221
 Alpha virt. eigenvalues --    0.04554   0.04832   0.05420   0.05533   0.08428
 Alpha virt. eigenvalues --    0.08838   0.09477   0.09706   0.10530   0.11110
 Alpha virt. eigenvalues --    0.11869   0.12175   0.13116   0.13877   0.14199
 Alpha virt. eigenvalues --    0.14484   0.15321   0.15843   0.16623   0.17908
 Alpha virt. eigenvalues --    0.18155   0.18489   0.19760   0.19955   0.20965
 Alpha virt. eigenvalues --    0.21505   0.21857   0.22293   0.23296   0.23888
 Alpha virt. eigenvalues --    0.24632   0.24919   0.25626   0.26864   0.27472
 Alpha virt. eigenvalues --    0.27775   0.28185   0.29210   0.29746   0.30427
 Alpha virt. eigenvalues --    0.30748   0.31247   0.32565   0.32850   0.33968
 Alpha virt. eigenvalues --    0.34135   0.35481   0.35893   0.36785   0.37385
 Alpha virt. eigenvalues --    0.37506   0.38042   0.38482   0.38848   0.39664
 Alpha virt. eigenvalues --    0.40925   0.42355   0.43829   0.44211   0.47770
 Alpha virt. eigenvalues --    0.48991   0.62059   0.65381   0.66698   0.68109
 Alpha virt. eigenvalues --    0.70105   0.72878   0.74464   0.75295   0.77833
 Alpha virt. eigenvalues --    0.78657   0.82223   0.82784   0.84622   0.85201
 Alpha virt. eigenvalues --    0.89593   0.92104   0.95773   0.97159   0.99768
 Alpha virt. eigenvalues --    1.03011   1.03609   1.03803   1.05734   1.07193
 Alpha virt. eigenvalues --    1.08062   1.09391   1.10029   1.13076   1.15106
 Alpha virt. eigenvalues --    1.19446   1.21685   1.23331   1.25613   1.26557
 Alpha virt. eigenvalues --    1.28438   1.29370   1.30413   1.33115   1.33738
 Alpha virt. eigenvalues --    1.35519   1.36659   1.38988   1.39336   1.40659
 Alpha virt. eigenvalues --    1.42120   1.43705   1.46189   1.47546   1.51074
 Alpha virt. eigenvalues --    1.51688   1.54420   1.56523   1.58519   1.59238
 Alpha virt. eigenvalues --    1.61817   1.62933   1.64855   1.66122   1.68281
 Alpha virt. eigenvalues --    1.70999   1.72528   1.74695   1.78022   1.78421
 Alpha virt. eigenvalues --    1.81218   1.82723   1.85269   1.86120   1.87149
 Alpha virt. eigenvalues --    1.91055   1.92136   1.94497   1.96634   1.98526
 Alpha virt. eigenvalues --    2.01778   2.02857   2.04908   2.05555   2.07787
 Alpha virt. eigenvalues --    2.09434   2.11854   2.12972   2.16389   2.18293
 Alpha virt. eigenvalues --    2.19045   2.21406   2.24203   2.25848   2.28111
 Alpha virt. eigenvalues --    2.31843   2.33030   2.35485   2.40541   2.43649
 Alpha virt. eigenvalues --    2.43766   2.44984   2.48952   2.51081   2.52120
 Alpha virt. eigenvalues --    2.53938   2.56848   2.58352   2.59839   2.61984
 Alpha virt. eigenvalues --    2.64083   2.65635   2.66366   2.68570   2.70638
 Alpha virt. eigenvalues --    2.71877   2.74572   2.78048   2.79653   2.81138
 Alpha virt. eigenvalues --    2.83114   2.84935   2.87643   2.90022   2.91987
 Alpha virt. eigenvalues --    2.93925   2.96604   2.97327   3.00253   3.03181
 Alpha virt. eigenvalues --    3.03505   3.08748   3.13077   3.14316   3.22150
 Alpha virt. eigenvalues --    3.34684   3.39677   3.42368   3.47611   3.49992
 Alpha virt. eigenvalues --    3.51627   3.53930   3.55354   3.59497   3.61132
 Alpha virt. eigenvalues --    4.28730   4.35928   4.39694   4.48699   4.50973
 Alpha virt. eigenvalues --    4.57112   4.62550   4.74693   4.82811   4.89568
 Alpha virt. eigenvalues --    4.99840
          Condensed to atoms (all electrons):
              1          2          3          4          5          6
     1  C    5.676133  -0.269217  -0.446102  -0.189696   0.156507   0.114636
     2  C   -0.269217   6.794398  -0.392146   0.275889   0.150382  -0.839944
     3  C   -0.446102  -0.392146   6.696302  -0.016137  -0.808821   0.355256
     4  C   -0.189696   0.275889  -0.016137   6.237509  -0.144440  -0.377888
     5  C    0.156507   0.150382  -0.808821  -0.144440   6.796055  -0.567291
     6  C    0.114636  -0.839944   0.355256  -0.377888  -0.567291   6.972630
     7  O   -0.013573   0.126755   0.278588  -0.064660  -0.155178  -0.034146
     8  O    0.207751  -0.124187   0.298818   0.074452  -0.209210  -0.034825
     9  O    0.037973  -0.063848  -0.033096  -0.062537   0.070525   0.137383
    10  O   -0.002586   0.027335   0.063233   0.252479  -0.170159  -0.098164
    11  O    0.001375  -0.025318  -0.101975  -0.108462   0.313182   0.021260
    12  H    0.462520  -0.121403   0.020350  -0.030038   0.008118   0.011005
    13  H    0.373212  -0.014748  -0.005935   0.006550  -0.001326   0.024489
    14  H    0.006713   0.281498   0.005042   0.006896  -0.001787   0.040298
    15  H    0.000575   0.039585   0.316591   0.026037  -0.002034  -0.011650
    16  H    0.007748  -0.007816  -0.009970   0.350798  -0.053651   0.025951
    17  H    0.010346  -0.030640  -0.001571  -0.021622   0.322868   0.056925
    18  H    0.015615  -0.031221  -0.024624  -0.104371   0.039392   0.430178
    19  H    0.016102  -0.034854  -0.005552  -0.047455   0.009819   0.061239
    20  H   -0.002049   0.019671  -0.013486   0.026151   0.043971  -0.080943
    21  H    0.000553  -0.007824  -0.023537  -0.021057   0.000906   0.034864
              7          8          9         10         11         12
     1  C   -0.013573   0.207751   0.037973  -0.002586   0.001375   0.462520
     2  C    0.126755  -0.124187  -0.063848   0.027335  -0.025318  -0.121403
     3  C    0.278588   0.298818  -0.033096   0.063233  -0.101975   0.020350
     4  C   -0.064660   0.074452  -0.062537   0.252479  -0.108462  -0.030038
     5  C   -0.155178  -0.209210   0.070525  -0.170159   0.313182   0.008118
     6  C   -0.034146  -0.034825   0.137383  -0.098164   0.021260   0.011005
     7  O    8.295728  -0.036401   0.008533  -0.004726  -0.002431   0.010186
     8  O   -0.036401   8.311882  -0.003004  -0.001483   0.008210  -0.046596
     9  O    0.008533  -0.003004   8.251491  -0.008507  -0.004016   0.007082
    10  O   -0.004726  -0.001483  -0.008507   8.298418  -0.005848  -0.000045
    11  O   -0.002431   0.008210  -0.004016  -0.005848   8.188697   0.000081
    12  H    0.010186  -0.046596   0.007082  -0.000045   0.000081   0.535911
    13  H   -0.002720  -0.048753  -0.001415  -0.000004   0.000046  -0.036041
    14  H   -0.031404   0.007122   0.000535  -0.000556  -0.000146   0.002027
    15  H   -0.046692  -0.039071  -0.000049  -0.000621   0.004465  -0.000235
    16  H    0.000359  -0.002109  -0.016054  -0.045268   0.008102   0.000694
    17  H    0.010686  -0.000570  -0.000700  -0.002229  -0.052593   0.000007
    18  H    0.002643  -0.000988  -0.054369  -0.000649   0.004400   0.000203
    19  H   -0.000138  -0.000836   0.246658  -0.002610   0.000191   0.001544
    20  H    0.000071   0.000306   0.020747   0.234258  -0.001715  -0.000013
    21  H    0.028174   0.000008  -0.000269  -0.003311   0.252983  -0.000004
             13         14         15         16         17         18
     1  C    0.373212   0.006713   0.000575   0.007748   0.010346   0.015615
     2  C   -0.014748   0.281498   0.039585  -0.007816  -0.030640  -0.031221
     3  C   -0.005935   0.005042   0.316591  -0.009970  -0.001571  -0.024624
     4  C    0.006550   0.006896   0.026037   0.350798  -0.021622  -0.104371
     5  C   -0.001326  -0.001787  -0.002034  -0.053651   0.322868   0.039392
     6  C    0.024489   0.040298  -0.011650   0.025951   0.056925   0.430178
     7  O   -0.002720  -0.031404  -0.046692   0.000359   0.010686   0.002643
     8  O   -0.048753   0.007122  -0.039071  -0.002109  -0.000570  -0.000988
     9  O   -0.001415   0.000535  -0.000049  -0.016054  -0.000700  -0.054369
    10  O   -0.000004  -0.000556  -0.000621  -0.045268  -0.002229  -0.000649
    11  O    0.000046  -0.000146   0.004465   0.008102  -0.052593   0.004400
    12  H   -0.036041   0.002027  -0.000235   0.000694   0.000007   0.000203
    13  H    0.523055  -0.002691   0.000398   0.000011  -0.000001  -0.000131
    14  H   -0.002691   0.489035   0.000007  -0.000267   0.000018  -0.006266
    15  H    0.000398   0.000007   0.524014  -0.000200  -0.003079  -0.000075
    16  H    0.000011  -0.000267  -0.000200   0.558350  -0.004949   0.004325
    17  H   -0.000001   0.000018  -0.003079  -0.004949   0.524397  -0.000198
    18  H   -0.000131  -0.006266  -0.000075   0.004325  -0.000198   0.523742
    19  H   -0.000138  -0.000528  -0.000001   0.005088  -0.000013   0.006768
    20  H    0.000000   0.000000   0.000005  -0.005287  -0.000149  -0.001215
    21  H    0.000002   0.000043  -0.000658  -0.000184   0.006229  -0.001659
             19         20         21
     1  C    0.016102  -0.002049   0.000553
     2  C   -0.034854   0.019671  -0.007824
     3  C   -0.005552  -0.013486  -0.023537
     4  C   -0.047455   0.026151  -0.021057
     5  C    0.009819   0.043971   0.000906
     6  C    0.061239  -0.080943   0.034864
     7  O   -0.000138   0.000071   0.028174
     8  O   -0.000836   0.000306   0.000008
     9  O    0.246658   0.020747  -0.000269
    10  O   -0.002610   0.234258  -0.003311
    11  O    0.000191  -0.001715   0.252983
    12  H    0.001544  -0.000013  -0.000004
    13  H   -0.000138   0.000000   0.000002
    14  H   -0.000528   0.000000   0.000043
    15  H   -0.000001   0.000005  -0.000658
    16  H    0.005088  -0.005287  -0.000184
    17  H   -0.000013  -0.000149   0.006229
    18  H    0.006768  -0.001215  -0.001659
    19  H    0.369217  -0.000924  -0.000006
    20  H   -0.000924   0.373777   0.000006
    21  H   -0.000006   0.000006   0.357264
 Mulliken atomic charges:
              1
     1  C   -0.164536
     2  C    0.247654
     3  C   -0.151228
     4  C   -0.068399
     5  C    0.202173
     6  C   -0.241262
     7  O   -0.369655
     8  O   -0.360516
     9  O   -0.533066
    10  O   -0.528954
    11  O   -0.500487
    12  H    0.174647
    13  H    0.186140
    14  H    0.204409
    15  H    0.192688
    16  H    0.184331
    17  H    0.186837
    18  H    0.198499
    19  H    0.376430
    20  H    0.386819
    21  H    0.377477
 Sum of Mulliken atomic charges =   0.00000
 Mulliken charges with hydrogens summed into heavy atoms:
              1
     1  C    0.196250
     2  C    0.452063
     3  C    0.041460
     4  C    0.115931
     5  C    0.389010
     6  C   -0.042763
     7  O   -0.369655
     8  O   -0.360516
     9  O   -0.156636
    10  O   -0.142135
    11  O   -0.123010
 Sum of Mulliken charges with hydrogens summed into heavy atoms =   0.00000
 Electronic spatial extent (au):  <R**2>=           1434.8276
 Charge=              0.0000 electrons
 Dipole moment (field-independent basis, Debye):
    X=             -2.5630    Y=              4.2916    Z=             -0.9630  Tot=              5.0906
 Quadrupole moment (field-independent basis, Debye-Ang):
   XX=            -71.5425   YY=            -65.9772   ZZ=            -63.5250
   XY=              2.5495   XZ=             -2.3921   YZ=             -3.6354
 Traceless Quadrupole moment (field-independent basis, Debye-Ang):
   XX=             -4.5276   YY=              1.0377   ZZ=              3.4899
   XY=              2.5495   XZ=             -2.3921   YZ=             -3.6354
 Octapole moment (field-independent basis, Debye-Ang**2):
  XXX=             -5.5022  YYY=             13.5544  ZZZ=              8.7316  XYY=            -22.2469
  XXY=             20.6516  XXZ=              1.7884  XZZ=              9.9603  YZZ=              2.9768
  YYZ=            -18.0666  XYZ=             -5.7687
 Hexadecapole moment (field-independent basis, Debye-Ang**3):
 XXXX=           -785.8950 YYYY=           -740.8653 ZZZZ=           -267.0430 XXXY=             33.9214
 XXXZ=             -9.3361 YYYX=             16.1719 YYYZ=            -26.1800 ZZZX=             -0.0718
 ZZZY=            -11.8624 XXYY=           -249.5053 XXZZ=           -193.1880 YYZZ=           -143.2584
 XXYZ=            -12.5269 YYXZ=            -18.7887 ZZXY=             -6.0582
 N-N= 7.264709406259D+02 E-N=-2.882345150718D+03  KE= 6.052024945201D+02
 1\1\GINC-COMPUTE-8-6\SP\RmPW1PW91\6-31+G(d,p)\C6H10O5\MMARCARINO.IQUIR
 \12-Apr-2019\0\\# mpw1pw91/6-31+g** nmr scrf=(pcm,solvent=water)\\comm
 ent\\0,1\C,0,-1.731554,1.081776,-0.542959\C,0,-0.917903,0.920376,0.746
 784\C,0,-1.158306,-1.112737,-0.137921\C,0,1.044129,-0.010656,-0.554754
 \C,0,0.336633,-1.375179,-0.40472\C,0,0.610467,0.970572,0.548632\O,0,-1
 .25936,-0.435492,1.11082\O,0,-1.724952,-0.243438,-1.110677\O,0,1.11491
 9,2.281257,0.30727\O,0,2.450778,-0.19755,-0.55627\O,0,0.857634,-2.1759
 71,0.647241\H,0,-1.298778,1.786886,-1.259954\H,0,-2.762708,1.382591,-0
 .330446\H,0,-1.23498,1.586906,1.5503\H,0,-1.732116,-2.040675,-0.077023
 \H,0,0.720842,0.405974,-1.522808\H,0,0.469287,-1.954296,-1.323673\H,0,
 1.073164,0.662898,1.492165\H,0,0.784114,2.5866,-0.554703\H,0,2.837446,
 0.694727,-0.56874\H,0,0.530775,-1.786967,1.477452\\Version=EM64L-G09Re
 vC.01\State=1-A\HF=-610.6483932\RMSD=5.485e-09\Dipole=-1.008352,1.6884
 409,-0.3788657\Quadrupole=-3.3661652,0.7715213,2.5946439,1.8955138,-1.
 7784477,-2.7028555\PG=C01 [X(C6H10O5)]\\@


 YOU CAN WIPE THE SLATE CLEAN, BUT YOU'LL STILL
 HAVE TO EAT A LITTLE CHALK DUST.
 Job cpu time:  0 days  0 hours 19 minutes 51.2 seconds.
 File lengths (MBytes):  RWF=     83 Int=      0 D2E=      0 Chk=      5 Scr=      1
 Normal termination of Gaussian 09 at Fri Apr 12 11:14:48 2019.
