 Entering Gaussian System, Link 0=g09
 Input=/home/asarotti.iquir/SCF3/03_RRS_Levo01_OPTB_energy_b3lyp_smd.gjc
 Output=/home/asarotti.iquir/SCF3/03_RRS_Levo01_OPTB_energy_b3lyp_smd.log
 Initial command:
 /share/apps/Gaussian09/EM64T.SSE4.2-enabled/g09/l1.exe /tmp/Gau-37900.inp -scrdir=/tmp/
 Entering Link 1 = /share/apps/Gaussian09/EM64T.SSE4.2-enabled/g09/l1.exe PID=     37901.
  
 Copyright (c) 1988,1990,1992,1993,1995,1998,2003,2009,2011,
            Gaussian, Inc.  All Rights Reserved.
  
 This is part of the Gaussian(R) 09 program.  It is based on
 the Gaussian(R) 03 system (copyright 2003, Gaussian, Inc.),
 the Gaussian(R) 98 system (copyright 1998, Gaussian, Inc.),
 the Gaussian(R) 94 system (copyright 1995, Gaussian, Inc.),
 the Gaussian 92(TM) system (copyright 1992, Gaussian, Inc.),
 the Gaussian 90(TM) system (copyright 1990, Gaussian, Inc.),
 the Gaussian 88(TM) system (copyright 1988, Gaussian, Inc.),
 the Gaussian 86(TM) system (copyright 1986, Carnegie Mellon
 University), and the Gaussian 82(TM) system (copyright 1983,
 Carnegie Mellon University). Gaussian is a federally registered
 trademark of Gaussian, Inc.
  
 This software contains proprietary and confidential information,
 including trade secrets, belonging to Gaussian, Inc.
  
 This software is provided under written license and may be
 used, copied, transmitted, or stored only in accord with that
 written license.
  
 The following legend is applicable only to US Government
 contracts under FAR:
  
                    RESTRICTED RIGHTS LEGEND
  
 Use, reproduction and disclosure by the US Government is
 subject to restrictions as set forth in subparagraphs (a)
 and (c) of the Commercial Computer Software - Restricted
 Rights clause in FAR 52.227-19.
  
 Gaussian, Inc.
 340 Quinnipiac St., Bldg. 40, Wallingford CT 06492
  
  
 ---------------------------------------------------------------
 Warning -- This program may not be used in any manner that
 competes with the business of Gaussian, Inc. or will provide
 assistance to any competitor of Gaussian, Inc.  The licensee
 of this program is prohibited from giving any competitor of
 Gaussian, Inc. access to this program.  By using this program,
 the user acknowledges that Gaussian, Inc. is engaged in the
 business of creating and licensing software in the field of
 computational chemistry and represents and warrants to the
 licensee that it is not a competitor of Gaussian, Inc. and that
 it will not use this program in any manner prohibited above.
 ---------------------------------------------------------------
  

 Cite this work as:
 Gaussian 09, Revision C.01,
 M. J. Frisch, G. W. Trucks, H. B. Schlegel, G. E. Scuseria, 
 M. A. Robb, J. R. Cheeseman, G. Scalmani, V. Barone, B. Mennucci, 
 G. A. Petersson, H. Nakatsuji, M. Caricato, X. Li, H. P. Hratchian, 
 A. F. Izmaylov, J. Bloino, G. Zheng, J. L. Sonnenberg, M. Hada, 
 M. Ehara, K. Toyota, R. Fukuda, J. Hasegawa, M. Ishida, T. Nakajima, 
 Y. Honda, O. Kitao, H. Nakai, T. Vreven, J. A. Montgomery, Jr., 
 J. E. Peralta, F. Ogliaro, M. Bearpark, J. J. Heyd, E. Brothers, 
 K. N. Kudin, V. N. Staroverov, T. Keith, R. Kobayashi, J. Normand, 
 K. Raghavachari, A. Rendell, J. C. Burant, S. S. Iyengar, J. Tomasi, 
 M. Cossi, N. Rega, J. M. Millam, M. Klene, J. E. Knox, J. B. Cross, 
 V. Bakken, C. Adamo, J. Jaramillo, R. Gomperts, R. E. Stratmann, 
 O. Yazyev, A. J. Austin, R. Cammi, C. Pomelli, J. W. Ochterski, 
 R. L. Martin, K. Morokuma, V. G. Zakrzewski, G. A. Voth, 
 P. Salvador, J. J. Dannenberg, S. Dapprich, A. D. Daniels, 
 O. Farkas, J. B. Foresman, J. V. Ortiz, J. Cioslowski, 
 and D. J. Fox, Gaussian, Inc., Wallingford CT, 2010.
 
 ******************************************
 Gaussian 09:  EM64L-G09RevC.01 23-Sep-2011
                15-Apr-2019 
 ******************************************
 %nprocshared=4
 Will use up to    4 processors via shared memory.
 -----------------------------------------------------------
 # B3LYP/6-31+G** test scrf=(pcm,solvent=water,smd,dovacuum)
 -----------------------------------------------------------
 1/38=1/1;
 2/12=2,17=6,18=5,40=1/2;
 3/5=1,6=6,7=111,11=2,16=1,25=1,30=1,70=32101,72=1,74=-5/1,2,3;
 4//1;
 5/5=2,38=5,53=1/2;
 6/7=2,8=2,9=2,10=2,28=1/1;
 99/5=1,9=1/99;
 -------
 comment
 -------
 Charge =  0 Multiplicity = 1
 Symbolic Z-Matrix:
 6                    -1.88161   0.79246  -0.54766 
 6                    -1.05263   0.78145   0.74107 
 6                    -0.97596  -1.28     -0.10268 
 6                     1.02018   0.16851  -0.57667 
 6                     0.5276   -1.28495  -0.4197 
 6                     0.43791   1.08086   0.5219 
 8                    -1.16064  -0.60379   1.13502 
 8                    -1.69107  -0.53669  -1.08013 
 8                     0.58623   2.45385   0.18813 
 8                     2.44126   0.22796  -0.57989 
 8                     1.25165  -1.94329   0.62305 
 1                    -1.53481   1.53622  -1.26988 
 1                    -2.94581   0.94851  -0.34319 
 1                    -1.47037   1.40168   1.53572 
 1                    -1.38914  -2.28787  -0.01358 
 1                     0.69394   0.55423  -1.54764 
 1                     0.72939  -1.84759  -1.33568 
 1                     0.95552   0.86047   1.46887 
 1                     1.52272   2.57797  -0.04268 
 1                     2.72149  -0.41576   0.09823 
 1                     0.84463  -1.66219   1.46277 
 
                          Input orientation:                          
 ---------------------------------------------------------------------
 Center     Atomic      Atomic             Coordinates (Angstroms)
 Number     Number       Type             X           Y           Z
 ---------------------------------------------------------------------
      1          6           0       -1.881608    0.792456   -0.547658
      2          6           0       -1.052630    0.781453    0.741074
      3          6           0       -0.975955   -1.279997   -0.102681
      4          6           0        1.020177    0.168513   -0.576672
      5          6           0        0.527597   -1.284948   -0.419695
      6          6           0        0.437911    1.080857    0.521900
      7          8           0       -1.160640   -0.603792    1.135018
      8          8           0       -1.691066   -0.536685   -1.080127
      9          8           0        0.586227    2.453850    0.188128
     10          8           0        2.441260    0.227960   -0.579888
     11          8           0        1.251655   -1.943292    0.623051
     12          1           0       -1.534811    1.536223   -1.269878
     13          1           0       -2.945809    0.948505   -0.343185
     14          1           0       -1.470365    1.401680    1.535720
     15          1           0       -1.389141   -2.287869   -0.013581
     16          1           0        0.693937    0.554233   -1.547637
     17          1           0        0.729387   -1.847591   -1.335679
     18          1           0        0.955521    0.860470    1.468865
     19          1           0        1.522719    2.577969   -0.042675
     20          1           0        2.721493   -0.415761    0.098225
     21          1           0        0.844632   -1.662185    1.462769
 ---------------------------------------------------------------------
                    Distance matrix (angstroms):
                    1          2          3          4          5
     1  C    0.000000
     2  C    1.532369   0.000000
     3  C    2.305054   2.228761   0.000000
     4  C    2.968249   2.531537   2.511452   0.000000
     5  C    3.183748   2.848599   1.536617   1.542668   0.000000
     6  C    2.570466   1.536031   2.821835   1.542163   2.547877
     7  O    2.302325   1.444217   1.422414   2.877899   2.394003
     8  O    1.444453   2.337063   1.421020   2.846333   2.432804
     9  O    3.064608   2.405933   4.057905   2.448672   3.788337
    10  O    4.359688   3.776051   3.765504   1.422329   2.444721
    11  O    4.321136   3.570419   2.434932   2.439803   1.430034
    12  H    1.093188   2.201387   3.099317   2.979787   3.596574
    13  H    1.094844   2.188070   2.984022   4.048697   4.130220
    14  H    2.209239   1.091167   3.181225   3.490802   3.877302
    15  H    3.164832   3.178597   1.092917   3.486502   2.201060
    16  H    2.773110   2.887962   2.870686   1.094525   2.163911
    17  H    3.795803   3.794781   2.179596   2.173781   1.093761
    18  H    3.481421   2.137427   3.283589   2.160372   2.890086
    19  H    3.877178   3.236380   4.596833   2.518567   4.006812
    20  H    4.802655   4.011307   3.802419   1.921286   2.415969
    21  H    4.183236   3.176761   2.431304   2.746196   1.945890
                    6          7          8          9         10
     6  C    0.000000
     7  O    2.401941   0.000000
     8  O    3.116966   2.278755   0.000000
     9  O    1.420743   3.646549   3.967094   0.000000
    10  O    2.440241   4.075095   4.232144   2.997596   0.000000
    11  O    3.133351   2.806339   3.679533   4.468424   2.752555
    12  H    2.703601   3.240863   2.087431   2.732512   4.242261
    13  H    3.495061   2.789541   2.079243   3.876033   5.440195
    14  H    2.184554   2.068432   3.263223   2.674441   4.599372
    15  H    3.869519   2.051245   2.072516   5.140687   4.617583
    16  H    2.150783   3.460797   2.664002   2.575466   2.023890
    17  H    3.480139   3.350161   2.764484   4.565619   2.794574
    18  H    1.101469   2.594929   3.931135   2.077384   2.608616
    19  H    1.933106   4.325619   4.594104   0.972467   2.579701
    20  H    2.762990   4.022593   4.568787   3.578004   0.976086
    21  H    2.928299   2.291011   3.763354   4.316622   3.208476
                   11         12         13         14         15
    11  O    0.000000
    12  H    4.842995   0.000000
    13  H    5.187948   1.787481   0.000000
    14  H    4.408083   2.809561   2.431581   0.000000
    15  H    2.738218   4.027801   3.606379   4.002462   0.000000
    16  H    3.355677   2.451280   3.854077   3.861277   3.843187
    17  H    2.029420   4.071992   4.723374   4.862263   2.535734
    18  H    2.943498   3.762859   4.302517   2.486423   4.196084
    19  H    4.578042   3.455395   4.765837   3.582393   5.670640
    20  H    2.183854   4.878327   5.845885   4.789693   4.518252
    21  H    0.974585   4.833107   4.944150   3.840807   2.749697
                   16         17         18         19         20
    16  H    0.000000
    17  H    2.411419   0.000000
    18  H    3.043270   3.905150   0.000000
    19  H    2.654675   4.678335   2.357174   0.000000
    20  H    2.785809   2.841602   2.574117   3.227899   0.000000
    21  H    3.741358   2.806950   2.525098   4.550282   2.634039
                   21
    21  H    0.000000
 Stoichiometry    C6H10O5
 Framework group  C1[X(C6H10O5)]
 Deg. of freedom    57
 Full point group                 C1      NOp   1
 Largest Abelian subgroup         C1      NOp   1
 Largest concise Abelian subgroup C1      NOp   1
                         Standard orientation:                         
 ---------------------------------------------------------------------
 Center     Atomic      Atomic             Coordinates (Angstroms)
 Number     Number       Type             X           Y           Z
 ---------------------------------------------------------------------
      1          6           0       -1.881608    0.792455   -0.547658
      2          6           0       -1.052630    0.781453    0.741074
      3          6           0       -0.975955   -1.279997   -0.102681
      4          6           0        1.020177    0.168513   -0.576672
      5          6           0        0.527597   -1.284948   -0.419695
      6          6           0        0.437911    1.080857    0.521900
      7          8           0       -1.160640   -0.603792    1.135018
      8          8           0       -1.691066   -0.536686   -1.080127
      9          8           0        0.586226    2.453850    0.188128
     10          8           0        2.441260    0.227961   -0.579888
     11          8           0        1.251656   -1.943292    0.623051
     12          1           0       -1.534812    1.536222   -1.269878
     13          1           0       -2.945809    0.948504   -0.343185
     14          1           0       -1.470365    1.401679    1.535720
     15          1           0       -1.389140   -2.287869   -0.013581
     16          1           0        0.693937    0.554233   -1.547637
     17          1           0        0.729388   -1.847591   -1.335679
     18          1           0        0.955521    0.860470    1.468865
     19          1           0        1.522718    2.577969   -0.042675
     20          1           0        2.721493   -0.415760    0.098225
     21          1           0        0.844632   -1.662185    1.462769
 ---------------------------------------------------------------------
 Rotational constants (GHZ):      1.4650228      1.2952829      0.8904046
 Standard basis: 6-31+G(d,p) (6D, 7F)
 There are   259 symmetry adapted basis functions of A   symmetry.
 Integral buffers will be    131072 words long.
 Raffenetti 2 integral format.
 Two-electron integral symmetry is turned on.
   259 basis functions,   422 primitive gaussians,   259 cartesian basis functions
    43 alpha electrons       43 beta electrons
       nuclear repulsion energy       728.0703532491 Hartrees.
 NAtoms=   21 NActive=   21 NUniq=   21 SFac= 1.00D+00 NAtFMM=   60 NAOKFM=F Big=F
 ------------------------------------------------------------------------------
 Polarizable Continuum Model (PCM)
 =================================
 Model                : C-PCM.
 Atomic radii         : SMD-Coulomb.
 Polarization charges : Total charges.
 Charge compensation  : None.
 Solution method      : Matrix inversion.
 Cavity type          : VdW (van der Waals Surface) (Alpha=1.000).
 Cavity algorithm     : GePol (No added spheres)
                        Default sphere list used, NSphG=   21.
                        Lebedev-Laikov grids with approx.  5.0 points / Ang**2.
                        Smoothing algorithm: Karplus/York (Gamma=1.0000).
                        Polarization charges: spherical gaussians, with
                                              point-specific exponents (IZeta= 3).
                        Self-potential: point-specific (ISelfS= 7).
                        Self-field    : sphere-specific E.n sum rule (ISelfD= 2).
 Solvent              : Water, Eps=  78.355300 Eps(inf)=   1.777849
 ------------------------------------------------------------------------------
 ------------------------------------------------------------------------------
 Atomic radii for non-electrostatic terms: SMD-CDS.
 ------------------------------------------------------------------------------
 Nuclear repulsion after PCM non-electrostatic terms =      728.0750998917 Hartrees.
 One-electron integrals computed using PRISM.
 NBasis=   259 RedAO= T  NBF=   259
 NBsUse=   259 1.00D-06 NBFU=   259
 Harris functional with IExCor=  402 diagonalized for initial guess.
 ExpMin= 4.38D-02 ExpMax= 5.48D+03 ExpMxC= 8.25D+02 IAcc=2 IRadAn=         4 AccDes= 0.00D+00
 HarFok:  IExCor=  402 AccDes= 0.00D+00 IRadAn=         4 IDoV= 1
 ScaDFX=  1.000000  1.000000  1.000000  1.000000
 FoFCou: FMM=F IPFlag=           0 FMFlag=      100000 FMFlg1=           0
         NFxFlg=           0 DoJE=T BraDBF=F KetDBF=T FulRan=T
         Omega=  0.000000  0.000000  1.000000  0.000000  0.000000 ICntrl=     500 IOpCl=  0
         NMat0=    1 NMatS0=    1 NMatT0=    0 NMatD0=    1 NMtDS0=    0 NMtDT0=    0
         I1Cent=           4 NGrid=           0.
 Petite list used in FoFCou.
 Initial guess orbital symmetries:
       Occupied  (A) (A) (A) (A) (A) (A) (A) (A) (A) (A) (A) (A)
                 (A) (A) (A) (A) (A) (A) (A) (A) (A) (A) (A) (A)
                 (A) (A) (A) (A) (A) (A) (A) (A) (A) (A) (A) (A)
                 (A) (A) (A) (A) (A) (A) (A)
       Virtual   (A) (A) (A) (A) (A) (A) (A) (A) (A) (A) (A) (A)
                 (A) (A) (A) (A) (A) (A) (A) (A) (A) (A) (A) (A)
                 (A) (A) (A) (A) (A) (A) (A) (A) (A) (A) (A) (A)
                 (A) (A) (A) (A) (A) (A) (A) (A) (A) (A) (A) (A)
                 (A) (A) (A) (A) (A) (A) (A) (A) (A) (A) (A) (A)
                 (A) (A) (A) (A) (A) (A) (A) (A) (A) (A) (A) (A)
                 (A) (A) (A) (A) (A) (A) (A) (A) (A) (A) (A) (A)
                 (A) (A) (A) (A) (A) (A) (A) (A) (A) (A) (A) (A)
                 (A) (A) (A) (A) (A) (A) (A) (A) (A) (A) (A) (A)
                 (A) (A) (A) (A) (A) (A) (A) (A) (A) (A) (A) (A)
                 (A) (A) (A) (A) (A) (A) (A) (A) (A) (A) (A) (A)
                 (A) (A) (A) (A) (A) (A) (A) (A) (A) (A) (A) (A)
                 (A) (A) (A) (A) (A) (A) (A) (A) (A) (A) (A) (A)
                 (A) (A) (A) (A) (A) (A) (A) (A) (A) (A) (A) (A)
                 (A) (A) (A) (A) (A) (A) (A) (A) (A) (A) (A) (A)
                 (A) (A) (A) (A) (A) (A) (A) (A) (A) (A) (A) (A)
                 (A) (A) (A) (A) (A) (A) (A) (A) (A) (A) (A) (A)
                 (A) (A) (A) (A) (A) (A) (A) (A) (A) (A) (A) (A)
 The electronic state of the initial guess is 1-A.
 Requested convergence on RMS density matrix=1.00D-08 within 128 cycles.
 Requested convergence on MAX density matrix=1.00D-06.
 Requested convergence on             energy=1.00D-06.
 No special actions if energy rises.
 Error on total polarization charges =  0.05803
 SCF Done:  E(RB3LYP) =  -610.811282636     A.U. after   12 cycles
             Convg  =    0.5075D-08             -V/T =  2.0090
 SMD-CDS (non-electrostatic) energy       (kcal/mol) =       2.98
 (included in total energy above)

 **********************************************************************

            Population analysis using the SCF density.

 **********************************************************************

 Orbital symmetries:
       Occupied  (A) (A) (A) (A) (A) (A) (A) (A) (A) (A) (A) (A)
                 (A) (A) (A) (A) (A) (A) (A) (A) (A) (A) (A) (A)
                 (A) (A) (A) (A) (A) (A) (A) (A) (A) (A) (A) (A)
                 (A) (A) (A) (A) (A) (A) (A)
       Virtual   (A) (A) (A) (A) (A) (A) (A) (A) (A) (A) (A) (A)
                 (A) (A) (A) (A) (A) (A) (A) (A) (A) (A) (A) (A)
                 (A) (A) (A) (A) (A) (A) (A) (A) (A) (A) (A) (A)
                 (A) (A) (A) (A) (A) (A) (A) (A) (A) (A) (A) (A)
                 (A) (A) (A) (A) (A) (A) (A) (A) (A) (A) (A) (A)
                 (A) (A) (A) (A) (A) (A) (A) (A) (A) (A) (A) (A)
                 (A) (A) (A) (A) (A) (A) (A) (A) (A) (A) (A) (A)
                 (A) (A) (A) (A) (A) (A) (A) (A) (A) (A) (A) (A)
                 (A) (A) (A) (A) (A) (A) (A) (A) (A) (A) (A) (A)
                 (A) (A) (A) (A) (A) (A) (A) (A) (A) (A) (A) (A)
                 (A) (A) (A) (A) (A) (A) (A) (A) (A) (A) (A) (A)
                 (A) (A) (A) (A) (A) (A) (A) (A) (A) (A) (A) (A)
                 (A) (A) (A) (A) (A) (A) (A) (A) (A) (A) (A) (A)
                 (A) (A) (A) (A) (A) (A) (A) (A) (A) (A) (A) (A)
                 (A) (A) (A) (A) (A) (A) (A) (A) (A) (A) (A) (A)
                 (A) (A) (A) (A) (A) (A) (A) (A) (A) (A) (A) (A)
                 (A) (A) (A) (A) (A) (A) (A) (A) (A) (A) (A) (A)
                 (A) (A) (A) (A) (A) (A) (A) (A) (A) (A) (A) (A)
 The electronic state is 1-A.
 Alpha  occ. eigenvalues --  -19.18855 -19.17921 -19.17593 -19.17085 -19.16913
 Alpha  occ. eigenvalues --  -10.29771 -10.25266 -10.24790 -10.24478 -10.24340
 Alpha  occ. eigenvalues --  -10.24076  -1.11477  -1.05485  -1.04016  -1.02461
 Alpha  occ. eigenvalues --   -1.01431  -0.79565  -0.77991  -0.68123  -0.65811
 Alpha  occ. eigenvalues --   -0.62806  -0.58985  -0.55798  -0.52959  -0.52732
 Alpha  occ. eigenvalues --   -0.50009  -0.48179  -0.47580  -0.45428  -0.45060
 Alpha  occ. eigenvalues --   -0.42709  -0.42168  -0.39719  -0.39140  -0.38087
 Alpha  occ. eigenvalues --   -0.35950  -0.35552  -0.35045  -0.32001  -0.31103
 Alpha  occ. eigenvalues --   -0.29280  -0.27417  -0.26780
 Alpha virt. eigenvalues --    0.00787   0.01514   0.02207   0.02397   0.04277
 Alpha virt. eigenvalues --    0.04834   0.05174   0.05550   0.06087   0.08608
 Alpha virt. eigenvalues --    0.09128   0.09407   0.10249   0.10719   0.11468
 Alpha virt. eigenvalues --    0.11905   0.13065   0.13300   0.14048   0.14628
 Alpha virt. eigenvalues --    0.15146   0.15446   0.16010   0.16926   0.17398
 Alpha virt. eigenvalues --    0.18053   0.18440   0.19576   0.20042   0.20924
 Alpha virt. eigenvalues --    0.21019   0.21817   0.22715   0.23311   0.23601
 Alpha virt. eigenvalues --    0.23992   0.24391   0.25368   0.26168   0.27202
 Alpha virt. eigenvalues --    0.27679   0.28067   0.29004   0.29127   0.29724
 Alpha virt. eigenvalues --    0.30477   0.31416   0.31782   0.32065   0.32892
 Alpha virt. eigenvalues --    0.33968   0.34619   0.35008   0.35944   0.36646
 Alpha virt. eigenvalues --    0.37475   0.37625   0.38118   0.38937   0.39519
 Alpha virt. eigenvalues --    0.40185   0.41530   0.42963   0.44672   0.46616
 Alpha virt. eigenvalues --    0.47878   0.62223   0.64565   0.65452   0.68582
 Alpha virt. eigenvalues --    0.69089   0.72900   0.73362   0.75685   0.76997
 Alpha virt. eigenvalues --    0.77819   0.80482   0.81342   0.83897   0.84450
 Alpha virt. eigenvalues --    0.88763   0.90363   0.94816   0.96126   0.99159
 Alpha virt. eigenvalues --    1.01672   1.01947   1.03240   1.04887   1.07461
 Alpha virt. eigenvalues --    1.07831   1.08428   1.10427   1.12000   1.13375
 Alpha virt. eigenvalues --    1.18760   1.20394   1.22803   1.24196   1.25157
 Alpha virt. eigenvalues --    1.27239   1.29420   1.29802   1.30122   1.32746
 Alpha virt. eigenvalues --    1.34503   1.35677   1.36594   1.37591   1.37956
 Alpha virt. eigenvalues --    1.40766   1.42947   1.44551   1.45973   1.49491
 Alpha virt. eigenvalues --    1.52326   1.54002   1.56723   1.58463   1.59321
 Alpha virt. eigenvalues --    1.61230   1.63999   1.65286   1.66011   1.66734
 Alpha virt. eigenvalues --    1.70304   1.71923   1.72875   1.75663   1.78894
 Alpha virt. eigenvalues --    1.81191   1.83297   1.85374   1.86496   1.86895
 Alpha virt. eigenvalues --    1.90387   1.92445   1.94135   1.96549   1.99110
 Alpha virt. eigenvalues --    2.01288   2.01705   2.02819   2.05166   2.07106
 Alpha virt. eigenvalues --    2.08600   2.09243   2.13795   2.16170   2.17132
 Alpha virt. eigenvalues --    2.18251   2.21299   2.23485   2.25542   2.29830
 Alpha virt. eigenvalues --    2.31360   2.33111   2.35613   2.39643   2.43259
 Alpha virt. eigenvalues --    2.45604   2.46869   2.48158   2.50089   2.51823
 Alpha virt. eigenvalues --    2.55332   2.56212   2.57447   2.58176   2.60520
 Alpha virt. eigenvalues --    2.64528   2.66026   2.66618   2.69100   2.70222
 Alpha virt. eigenvalues --    2.71464   2.75169   2.75532   2.77009   2.81474
 Alpha virt. eigenvalues --    2.83976   2.85940   2.87900   2.89423   2.91084
 Alpha virt. eigenvalues --    2.91504   2.94746   2.96154   3.00463   3.01090
 Alpha virt. eigenvalues --    3.05107   3.07321   3.12157   3.12648   3.20148
 Alpha virt. eigenvalues --    3.34307   3.39345   3.41745   3.45941   3.48518
 Alpha virt. eigenvalues --    3.49695   3.52547   3.55450   3.57250   3.58595
 Alpha virt. eigenvalues --    4.26555   4.35880   4.37305   4.44719   4.47525
 Alpha virt. eigenvalues --    4.56061   4.60262   4.72513   4.81772   4.88055
 Alpha virt. eigenvalues --    4.96581
          Condensed to atoms (all electrons):
              1          2          3          4          5          6
     1  C    5.526238  -0.221575  -0.248635  -0.123778   0.091933   0.031426
     2  C   -0.221575   7.021151  -0.637715   0.274981   0.036197  -0.581079
     3  C   -0.248635  -0.637715   6.421568  -0.146184  -0.584806   0.415960
     4  C   -0.123778   0.274981  -0.146184   6.296802  -0.289704  -0.343604
     5  C    0.091933   0.036197  -0.584806  -0.289704   6.506387  -0.210710
     6  C    0.031426  -0.581079   0.415960  -0.343604  -0.210710   6.276454
     7  O   -0.030404   0.078691   0.271823  -0.029945  -0.118151  -0.058383
     8  O    0.174936  -0.147055   0.308488   0.062885  -0.197385  -0.012158
     9  O    0.058747  -0.212796  -0.024534  -0.163784   0.076682   0.282595
    10  O   -0.001751   0.018361   0.015393   0.236704  -0.007018  -0.166935
    11  O    0.000429  -0.026708  -0.071467  -0.104695   0.238784   0.021554
    12  H    0.484116  -0.158947   0.022576  -0.027074   0.007041   0.014943
    13  H    0.390119  -0.016902  -0.016495   0.002065   0.004391   0.018146
    14  H   -0.013425   0.306196   0.025172   0.000554  -0.010562   0.023406
    15  H   -0.001193   0.041801   0.351087   0.026658  -0.040475  -0.009249
    16  H    0.010305  -0.005884  -0.014680   0.489581  -0.056562  -0.096911
    17  H    0.009781  -0.019032  -0.028997  -0.051799   0.384555   0.038460
    18  H    0.005192  -0.052480  -0.036950  -0.044328   0.046386   0.373405
    19  H   -0.012137   0.048695   0.000062  -0.020666   0.007853  -0.017891
    20  H    0.001196   0.000469   0.014126   0.051395  -0.060699  -0.033116
    21  H   -0.000027   0.001668  -0.033001  -0.016893   0.013917   0.015960
              7          8          9         10         11         12
     1  C   -0.030404   0.174936   0.058747  -0.001751   0.000429   0.484116
     2  C    0.078691  -0.147055  -0.212796   0.018361  -0.026708  -0.158947
     3  C    0.271823   0.308488  -0.024534   0.015393  -0.071467   0.022576
     4  C   -0.029945   0.062885  -0.163784   0.236704  -0.104695  -0.027074
     5  C   -0.118151  -0.197385   0.076682  -0.007018   0.238784   0.007041
     6  C   -0.058383  -0.012158   0.282595  -0.166935   0.021554   0.014943
     7  O    8.377134  -0.042374   0.011498  -0.001823  -0.002310   0.010615
     8  O   -0.042374   8.408935  -0.001466  -0.001531   0.005393  -0.038238
     9  O    0.011498  -0.001466   8.387453  -0.012716  -0.001961   0.010225
    10  O   -0.001823  -0.001531  -0.012716   8.362725  -0.024095   0.000114
    11  O   -0.002310   0.005393  -0.001961  -0.024095   8.322970   0.000098
    12  H    0.010615  -0.038238   0.010225   0.000114   0.000098   0.528749
    13  H   -0.000447  -0.052936  -0.002260  -0.000003   0.000025  -0.038242
    14  H   -0.031195   0.007419   0.002721  -0.000367   0.000028   0.002543
    15  H   -0.047306  -0.041861  -0.000086  -0.000739   0.005325  -0.000258
    16  H    0.000525  -0.000951   0.001548  -0.059757   0.007770   0.000916
    17  H    0.008692  -0.000615  -0.000682   0.000745  -0.054162   0.000026
    18  H    0.004924  -0.000144  -0.036522  -0.000553   0.003029   0.000251
    19  H   -0.000684  -0.000068   0.235607   0.011248  -0.000134  -0.000126
    20  H   -0.000541   0.000059   0.000835   0.247662   0.026980  -0.000004
    21  H    0.024951   0.000746  -0.000112  -0.000654   0.253786  -0.000003
             13         14         15         16         17         18
     1  C    0.390119  -0.013425  -0.001193   0.010305   0.009781   0.005192
     2  C   -0.016902   0.306196   0.041801  -0.005884  -0.019032  -0.052480
     3  C   -0.016495   0.025172   0.351087  -0.014680  -0.028997  -0.036950
     4  C    0.002065   0.000554   0.026658   0.489581  -0.051799  -0.044328
     5  C    0.004391  -0.010562  -0.040475  -0.056562   0.384555   0.046386
     6  C    0.018146   0.023406  -0.009249  -0.096911   0.038460   0.373405
     7  O   -0.000447  -0.031195  -0.047306   0.000525   0.008692   0.004924
     8  O   -0.052936   0.007419  -0.041861  -0.000951  -0.000615  -0.000144
     9  O   -0.002260   0.002721  -0.000086   0.001548  -0.000682  -0.036522
    10  O   -0.000003  -0.000367  -0.000739  -0.059757   0.000745  -0.000553
    11  O    0.000025   0.000028   0.005325   0.007770  -0.054162   0.003029
    12  H   -0.038242   0.002543  -0.000258   0.000916   0.000026   0.000251
    13  H    0.547494  -0.003721   0.000335  -0.000035  -0.000005  -0.000141
    14  H   -0.003721   0.514243  -0.000072  -0.000200   0.000019  -0.006865
    15  H    0.000335  -0.000072   0.543982  -0.000178  -0.003232  -0.000074
    16  H   -0.000035  -0.000200  -0.000178   0.532794  -0.004808   0.004455
    17  H   -0.000005   0.000019  -0.003232  -0.004808   0.537467  -0.000239
    18  H   -0.000141  -0.006865  -0.000074   0.004455  -0.000239   0.578324
    19  H    0.000009  -0.000121   0.000000  -0.001523  -0.000008  -0.005336
    20  H    0.000000  -0.000006  -0.000016   0.006111  -0.000759   0.001591
    21  H    0.000001   0.000047  -0.000619  -0.000157   0.005737  -0.001158
             19         20         21
     1  C   -0.012137   0.001196  -0.000027
     2  C    0.048695   0.000469   0.001668
     3  C    0.000062   0.014126  -0.033001
     4  C   -0.020666   0.051395  -0.016893
     5  C    0.007853  -0.060699   0.013917
     6  C   -0.017891  -0.033116   0.015960
     7  O   -0.000684  -0.000541   0.024951
     8  O   -0.000068   0.000059   0.000746
     9  O    0.235607   0.000835  -0.000112
    10  O    0.011248   0.247662  -0.000654
    11  O   -0.000134   0.026980   0.253786
    12  H   -0.000126  -0.000004  -0.000003
    13  H    0.000009   0.000000   0.000001
    14  H   -0.000121  -0.000006   0.000047
    15  H    0.000000  -0.000016  -0.000619
    16  H   -0.001523   0.006111  -0.000157
    17  H   -0.000008  -0.000759   0.005737
    18  H   -0.005336   0.001591  -0.001158
    19  H    0.346930  -0.000103  -0.000007
    20  H   -0.000103   0.340334  -0.001568
    21  H   -0.000007  -0.001568   0.329383
 Mulliken atomic charges:
              1
     1  C   -0.131491
     2  C    0.251963
     3  C   -0.002792
     4  C   -0.079171
     5  C    0.161948
     6  C    0.017727
     7  O   -0.425288
     8  O   -0.432078
     9  O   -0.610992
    10  O   -0.615011
    11  O   -0.600638
    12  H    0.180678
    13  H    0.168603
    14  H    0.184184
    15  H    0.176173
    16  H    0.187643
    17  H    0.178855
    18  H    0.167231
    19  H    0.408397
    20  H    0.406056
    21  H    0.408003
 Sum of Mulliken atomic charges =   0.00000
 Mulliken charges with hydrogens summed into heavy atoms:
              1
     1  C    0.217790
     2  C    0.436147
     3  C    0.173381
     4  C    0.108472
     5  C    0.340803
     6  C    0.184958
     7  O   -0.425288
     8  O   -0.432078
     9  O   -0.202595
    10  O   -0.208955
    11  O   -0.192635
 Sum of Mulliken charges with hydrogens summed into heavy atoms =   0.00000
 Electronic spatial extent (au):  <R**2>=           1429.0339
 Charge=              0.0000 electrons
 Dipole moment (field-independent basis, Debye):
    X=             -0.6607    Y=              0.4858    Z=              1.6725  Tot=              1.8627
 Quadrupole moment (field-independent basis, Debye-Ang):
   XX=            -68.6012   YY=            -69.5996   ZZ=            -65.3856
   XY=             -0.0473   XZ=              2.4619   YZ=              0.1301
 Traceless Quadrupole moment (field-independent basis, Debye-Ang):
   XX=             -0.7391   YY=             -1.7375   ZZ=              2.4766
   XY=             -0.0473   XZ=              2.4619   YZ=              0.1301
 Octapole moment (field-independent basis, Debye-Ang**2):
  XXX=             -6.3796  YYY=             -9.9980  ZZZ=              8.9461  XYY=             -4.8675
  XXY=             15.4892  XXZ=             15.8131  XZZ=              8.4760  YZZ=              1.2270
  YYZ=             -6.4106  XYZ=              1.6095
 Hexadecapole moment (field-independent basis, Debye-Ang**3):
 XXXX=           -808.9048 YYYY=           -758.4870 ZZZZ=           -267.8635 XXXY=            -16.6979
 XXXZ=             29.1488 YYYX=             62.4983 YYYZ=             -6.1089 ZZZX=              4.3946
 ZZZY=             -9.5301 XXYY=           -230.0442 XXZZ=           -198.4620 YYZZ=           -152.7365
 XXYZ=              0.9761 YYXZ=            -10.0267 ZZXY=            -15.3845
 N-N= 7.280750998917D+02 E-N=-2.885519629848D+03  KE= 6.053548075400D+02

 Test job not archived.
 1\1\GINC-COMPUTE-8-11\SP\RB3LYP\6-31+G(d,p)\C6H10O5\ASAROTTI.IQUIR\15-
 Apr-2019\0\\# B3LYP/6-31+G** test scrf=(pcm,solvent=water,smd,dovacuum
 )\\comment\\0,1\C,0,-1.881608,0.792456,-0.547658\C,0,-1.05263,0.781453
 ,0.741074\C,0,-0.975955,-1.279997,-0.102681\C,0,1.020177,0.168513,-0.5
 76672\C,0,0.527597,-1.284948,-0.419695\C,0,0.437911,1.080857,0.5219\O,
 0,-1.16064,-0.603792,1.135018\O,0,-1.691066,-0.536685,-1.080127\O,0,0.
 586227,2.45385,0.188128\O,0,2.44126,0.22796,-0.579888\O,0,1.251655,-1.
 943292,0.623051\H,0,-1.534811,1.536223,-1.269878\H,0,-2.945809,0.94850
 5,-0.343185\H,0,-1.470365,1.40168,1.53572\H,0,-1.389141,-2.287869,-0.0
 13581\H,0,0.693937,0.554233,-1.547637\H,0,0.729387,-1.847591,-1.335679
 \H,0,0.955521,0.86047,1.468865\H,0,1.522719,2.577969,-0.042675\H,0,2.7
 21493,-0.415761,0.098225\H,0,0.844632,-1.662185,1.462769\\Version=EM64
 L-G09RevC.01\State=1-A\HF=-610.8112826\RMSD=5.075e-09\Dipole=-0.259933
 3,0.1911093,0.6580106\Quadrupole=-0.5495027,-1.2917587,1.8412614,-0.03
 51453,1.8303634,0.0966912\PG=C01 [X(C6H10O5)]\\@


 NO SCIENCE HAS EVER MADE MORE RAPID PROGRESS IN A
 SHORTER TIME THAN CHEMISTRY.
   -- MARTIN HEINRICH KLOPROTH, 1791
 (FIRST PROFESSOR OF CHEMISTRY AT THE UNIVERSITY OF BERLIN)
 Job cpu time:  0 days  0 hours 11 minutes 15.4 seconds.
 File lengths (MBytes):  RWF=     56 Int=      0 D2E=      0 Chk=      4 Scr=      1
 Normal termination of Gaussian 09 at Mon Apr 15 18:29:16 2019.
