 Entering Gaussian System, Link 0=g09
 Input=/home/mmarcarino.iquir/NMR/03_RRS_Levo16_OPTB_nmr.gjc
 Output=/home/mmarcarino.iquir/NMR/03_RRS_Levo16_OPTB_nmr.log
 Initial command:
 /share/apps/Gaussian09/EM64T.SSE4.2-enabled/g09/l1.exe /tmp/Gau-63497.inp -scrdir=/tmp/
 Entering Link 1 = /share/apps/Gaussian09/EM64T.SSE4.2-enabled/g09/l1.exe PID=     63498.
  
 Copyright (c) 1988,1990,1992,1993,1995,1998,2003,2009,2011,
            Gaussian, Inc.  All Rights Reserved.
  
 This is part of the Gaussian(R) 09 program.  It is based on
 the Gaussian(R) 03 system (copyright 2003, Gaussian, Inc.),
 the Gaussian(R) 98 system (copyright 1998, Gaussian, Inc.),
 the Gaussian(R) 94 system (copyright 1995, Gaussian, Inc.),
 the Gaussian 92(TM) system (copyright 1992, Gaussian, Inc.),
 the Gaussian 90(TM) system (copyright 1990, Gaussian, Inc.),
 the Gaussian 88(TM) system (copyright 1988, Gaussian, Inc.),
 the Gaussian 86(TM) system (copyright 1986, Carnegie Mellon
 University), and the Gaussian 82(TM) system (copyright 1983,
 Carnegie Mellon University). Gaussian is a federally registered
 trademark of Gaussian, Inc.
  
 This software contains proprietary and confidential information,
 including trade secrets, belonging to Gaussian, Inc.
  
 This software is provided under written license and may be
 used, copied, transmitted, or stored only in accord with that
 written license.
  
 The following legend is applicable only to US Government
 contracts under FAR:
  
                    RESTRICTED RIGHTS LEGEND
  
 Use, reproduction and disclosure by the US Government is
 subject to restrictions as set forth in subparagraphs (a)
 and (c) of the Commercial Computer Software - Restricted
 Rights clause in FAR 52.227-19.
  
 Gaussian, Inc.
 340 Quinnipiac St., Bldg. 40, Wallingford CT 06492
  
  
 ---------------------------------------------------------------
 Warning -- This program may not be used in any manner that
 competes with the business of Gaussian, Inc. or will provide
 assistance to any competitor of Gaussian, Inc.  The licensee
 of this program is prohibited from giving any competitor of
 Gaussian, Inc. access to this program.  By using this program,
 the user acknowledges that Gaussian, Inc. is engaged in the
 business of creating and licensing software in the field of
 computational chemistry and represents and warrants to the
 licensee that it is not a competitor of Gaussian, Inc. and that
 it will not use this program in any manner prohibited above.
 ---------------------------------------------------------------
  

 Cite this work as:
 Gaussian 09, Revision C.01,
 M. J. Frisch, G. W. Trucks, H. B. Schlegel, G. E. Scuseria, 
 M. A. Robb, J. R. Cheeseman, G. Scalmani, V. Barone, B. Mennucci, 
 G. A. Petersson, H. Nakatsuji, M. Caricato, X. Li, H. P. Hratchian, 
 A. F. Izmaylov, J. Bloino, G. Zheng, J. L. Sonnenberg, M. Hada, 
 M. Ehara, K. Toyota, R. Fukuda, J. Hasegawa, M. Ishida, T. Nakajima, 
 Y. Honda, O. Kitao, H. Nakai, T. Vreven, J. A. Montgomery, Jr., 
 J. E. Peralta, F. Ogliaro, M. Bearpark, J. J. Heyd, E. Brothers, 
 K. N. Kudin, V. N. Staroverov, T. Keith, R. Kobayashi, J. Normand, 
 K. Raghavachari, A. Rendell, J. C. Burant, S. S. Iyengar, J. Tomasi, 
 M. Cossi, N. Rega, J. M. Millam, M. Klene, J. E. Knox, J. B. Cross, 
 V. Bakken, C. Adamo, J. Jaramillo, R. Gomperts, R. E. Stratmann, 
 O. Yazyev, A. J. Austin, R. Cammi, C. Pomelli, J. W. Ochterski, 
 R. L. Martin, K. Morokuma, V. G. Zakrzewski, G. A. Voth, 
 P. Salvador, J. J. Dannenberg, S. Dapprich, A. D. Daniels, 
 O. Farkas, J. B. Foresman, J. V. Ortiz, J. Cioslowski, 
 and D. J. Fox, Gaussian, Inc., Wallingford CT, 2010.
 
 ******************************************
 Gaussian 09:  EM64L-G09RevC.01 23-Sep-2011
                12-Apr-2019 
 ******************************************
 %nprocshared=4
 Will use up to    4 processors via shared memory.
 ------------------------------------------------
 # mpw1pw91/6-31+g** nmr scrf=(pcm,solvent=water)
 ------------------------------------------------
 1/38=1/1;
 2/12=2,17=6,18=5,40=1/2;
 3/5=1,6=6,7=111,11=2,16=1,25=1,30=1,70=2201,72=1,74=-7/1,2,8,3;
 4//1;
 5/5=2,38=5,53=1/2;
 8/6=1,10=90,11=11/1;
 10/13=100,45=16/2;
 6/7=2,8=2,9=2,10=2,28=1/1;
 99/9=1/99;
 -------
 comment
 -------
 Charge =  0 Multiplicity = 1
 Symbolic Z-Matrix:
 6                    -2.12142  -0.66777   0.05218 
 6                    -1.21973   0.19376   0.9275 
 6                     0.07643  -1.37287   0.04699 
 6                     0.92822   0.99428  -0.24979 
 6                     1.07974  -0.48103  -0.71409 
 6                    -0.52616   1.35523   0.13316 
 8                    -0.24047  -0.80151   1.29838 
 8                    -1.15068  -1.41898  -0.70214 
 8                    -1.28196   1.79061  -0.99572 
 8                     1.73707   1.24781   0.89071 
 8                     2.43426  -0.83333  -0.44204 
 1                    -2.75677  -0.11223  -0.63784 
 1                    -2.73676  -1.336     0.66581 
 1                    -1.6954    0.54648   1.84296 
 1                     0.46022  -2.38546   0.21247 
 1                     1.22454   1.65896  -1.0744 
 1                     0.87058  -0.56569  -1.78755 
 1                    -0.46094   2.23345   0.77977 
 1                    -1.25456   1.09135  -1.66965 
 1                     2.46597   0.60258   0.8479 
 1                     2.59493  -1.73989  -0.74866 
 
                          Input orientation:                          
 ---------------------------------------------------------------------
 Center     Atomic      Atomic             Coordinates (Angstroms)
 Number     Number       Type             X           Y           Z
 ---------------------------------------------------------------------
      1          6           0       -2.121420   -0.667774    0.052180
      2          6           0       -1.219731    0.193761    0.927499
      3          6           0        0.076427   -1.372868    0.046989
      4          6           0        0.928216    0.994282   -0.249788
      5          6           0        1.079735   -0.481028   -0.714088
      6          6           0       -0.526161    1.355231    0.133155
      7          8           0       -0.240466   -0.801510    1.298384
      8          8           0       -1.150683   -1.418980   -0.702144
      9          8           0       -1.281958    1.790611   -0.995720
     10          8           0        1.737069    1.247814    0.890713
     11          8           0        2.434261   -0.833332   -0.442043
     12          1           0       -2.756770   -0.112227   -0.637843
     13          1           0       -2.736755   -1.336002    0.665810
     14          1           0       -1.695401    0.546479    1.842956
     15          1           0        0.460217   -2.385460    0.212466
     16          1           0        1.224542    1.658959   -1.074400
     17          1           0        0.870580   -0.565691   -1.787552
     18          1           0       -0.460940    2.233450    0.779767
     19          1           0       -1.254560    1.091353   -1.669645
     20          1           0        2.465973    0.602583    0.847900
     21          1           0        2.594925   -1.739887   -0.748657
 ---------------------------------------------------------------------
                    Distance matrix (angstroms):
                    1          2          3          4          5
     1  C    0.000000
     2  C    1.523637   0.000000
     3  C    2.308185   2.215773   0.000000
     4  C    3.486244   2.576920   2.533184   0.000000
     5  C    3.296882   2.904771   1.543128   1.554050   0.000000
     6  C    2.577588   1.568768   2.795185   1.546655   2.582357
     7  O    2.260287   1.444673   1.411687   2.643392   2.428103
     8  O    1.440710   2.293782   1.438446   3.217185   2.419641
     9  O    2.801151   2.500515   3.597228   2.464837   3.288959
    10  O    4.388685   3.139275   3.215210   1.421008   2.448748
    11  O    4.585400   4.035124   2.467718   2.375985   1.425787
    12  H    1.090153   2.215042   3.175723   3.867049   3.854945
    13  H    1.096224   2.170258   2.880676   4.438531   4.147372
    14  H    2.205171   1.090291   3.169979   3.385775   3.910962
    15  H    3.104994   3.160044   1.095454   3.443161   2.206619
    16  H    4.228278   3.482653   3.430402   1.099813   2.174934
    17  H    3.513844   3.509654   2.155865   2.191245   1.096922
    18  H    3.421064   2.181266   3.719040   2.127269   3.460300
    19  H    2.609723   2.748098   3.284927   2.605749   2.972273
    20  H    4.826091   3.709162   3.202155   1.929519   2.352802
    21  H    4.902517   4.593484   2.666569   3.240751   1.970209
                    6          7          8          9         10
     6  C    0.000000
     7  O    2.467977   0.000000
     8  O    2.963781   2.282953   0.000000
     9  O    1.426585   3.614790   3.225662   0.000000
    10  O    2.389067   2.876903   4.241237   3.601081   0.000000
    11  O    3.726226   3.191279   3.641766   4.582785   2.567778
    12  H    2.779116   3.248980   2.071534   2.433914   4.937690
    13  H    3.523235   2.630074   2.096141   3.827901   5.171246
    14  H    2.223650   2.056810   3.261484   3.126800   3.630494
    15  H    3.869367   2.044278   2.089400   4.683424   3.910377
    16  H    2.148348   3.718906   3.905634   2.511188   2.072050
    17  H    3.054495   3.288318   2.447798   3.288248   3.348538
    18  H    1.092534   3.086836   4.001506   2.005625   2.411438
    19  H    1.962214   3.663402   2.692326   0.971539   3.940781
    20  H    3.167050   3.082081   4.423749   4.342503   0.974401
    21  H    4.483138   3.620825   3.759618   5.249350   3.514229
                   11         12         13         14         15
    11  O    0.000000
    12  H    5.244534   0.000000
    13  H    5.312196   1.788166   0.000000
    14  H    4.917236   2.777546   2.452310   0.000000
    15  H    2.595059   4.029841   3.395219   3.987663   0.000000
    16  H    2.841621   4.379330   5.262128   4.274885   4.312487
    17  H    2.080174   3.832118   4.430037   4.582769   2.734964
    18  H    4.390918   3.575284   4.234774   2.345237   4.743911
    19  H    4.338066   2.184000   3.680123   3.581842   4.309412
    20  H    1.930495   5.476808   5.555146   4.279056   3.654481
    21  H    0.970395   5.594837   5.530882   5.509158   2.428477
                   16         17         18         19         20
    16  H    0.000000
    17  H    2.362825   0.000000
    18  H    2.570763   4.024831   0.000000
    19  H    2.611980   2.697391   2.816707   0.000000
    20  H    2.520381   3.294807   3.351297   4.518771   0.000000
    21  H    3.679159   2.330537   5.240401   4.866485   2.837744
                   21
    21  H    0.000000
 Stoichiometry    C6H10O5
 Framework group  C1[X(C6H10O5)]
 Deg. of freedom    57
 Full point group                 C1      NOp   1
 Largest Abelian subgroup         C1      NOp   1
 Largest concise Abelian subgroup C1      NOp   1
                         Standard orientation:                         
 ---------------------------------------------------------------------
 Center     Atomic      Atomic             Coordinates (Angstroms)
 Number     Number       Type             X           Y           Z
 ---------------------------------------------------------------------
      1          6           0       -2.121420   -0.667774    0.052180
      2          6           0       -1.219731    0.193761    0.927499
      3          6           0        0.076427   -1.372868    0.046989
      4          6           0        0.928216    0.994282   -0.249788
      5          6           0        1.079735   -0.481028   -0.714088
      6          6           0       -0.526161    1.355231    0.133155
      7          8           0       -0.240466   -0.801510    1.298384
      8          8           0       -1.150683   -1.418980   -0.702144
      9          8           0       -1.281958    1.790611   -0.995720
     10          8           0        1.737069    1.247814    0.890713
     11          8           0        2.434261   -0.833332   -0.442043
     12          1           0       -2.756770   -0.112227   -0.637843
     13          1           0       -2.736755   -1.336002    0.665810
     14          1           0       -1.695401    0.546479    1.842956
     15          1           0        0.460217   -2.385460    0.212466
     16          1           0        1.224542    1.658959   -1.074400
     17          1           0        0.870580   -0.565691   -1.787552
     18          1           0       -0.460940    2.233450    0.779767
     19          1           0       -1.254560    1.091353   -1.669645
     20          1           0        2.465973    0.602583    0.847900
     21          1           0        2.594925   -1.739887   -0.748657
 ---------------------------------------------------------------------
 Rotational constants (GHZ):      1.6159069      1.1926858      0.9326930
 Standard basis: 6-31+G(d,p) (6D, 7F)
 There are   259 symmetry adapted basis functions of A   symmetry.
 Integral buffers will be    131072 words long.
 Raffenetti 2 integral format.
 Two-electron integral symmetry is turned on.
   259 basis functions,   422 primitive gaussians,   259 cartesian basis functions
    43 alpha electrons       43 beta electrons
       nuclear repulsion energy       730.0774119249 Hartrees.
 NAtoms=   21 NActive=   21 NUniq=   21 SFac= 1.00D+00 NAtFMM=   60 NAOKFM=F Big=F
 ------------------------------------------------------------------------------
 Polarizable Continuum Model (PCM)
 =================================
 Model                : PCM.
 Atomic radii         : UFF (Universal Force Field).
 Polarization charges : Total charges.
 Charge compensation  : None.
 Solution method      : Matrix inversion.
 Cavity type          : Scaled VdW (van der Waals Surface) (Alpha=1.100).
 Cavity algorithm     : GePol (No added spheres)
                        Default sphere list used, NSphG=   21.
                        Lebedev-Laikov grids with approx.  5.0 points / Ang**2.
                        Smoothing algorithm: Karplus/York (Gamma=1.0000).
                        Polarization charges: spherical gaussians, with
                                              point-specific exponents (IZeta= 3).
                        Self-potential: point-specific (ISelfS= 7).
                        Self-field    : sphere-specific E.n sum rule (ISelfD= 2).
 Solvent              : Water, Eps=  78.355300 Eps(inf)=   1.777849
 ------------------------------------------------------------------------------
 One-electron integrals computed using PRISM.
 NBasis=   259 RedAO= T  NBF=   259
 NBsUse=   259 1.00D-06 NBFU=   259
 Harris functional with IExCor=  908 diagonalized for initial guess.
 ExpMin= 4.38D-02 ExpMax= 5.48D+03 ExpMxC= 8.25D+02 IAcc=2 IRadAn=         4 AccDes= 0.00D+00
 HarFok:  IExCor=  908 AccDes= 0.00D+00 IRadAn=         4 IDoV= 1
 ScaDFX=  1.000000  1.000000  1.000000  1.000000
 FoFCou: FMM=F IPFlag=           0 FMFlag=      100000 FMFlg1=           0
         NFxFlg=           0 DoJE=T BraDBF=F KetDBF=T FulRan=T
         Omega=  0.000000  0.000000  1.000000  0.000000  0.000000 ICntrl=     500 IOpCl=  0
         NMat0=    1 NMatS0=    1 NMatT0=    0 NMatD0=    1 NMtDS0=    0 NMtDT0=    0
         I1Cent=           4 NGrid=           0.
 Petite list used in FoFCou.
 Initial guess orbital symmetries:
       Occupied  (A) (A) (A) (A) (A) (A) (A) (A) (A) (A) (A) (A)
                 (A) (A) (A) (A) (A) (A) (A) (A) (A) (A) (A) (A)
                 (A) (A) (A) (A) (A) (A) (A) (A) (A) (A) (A) (A)
                 (A) (A) (A) (A) (A) (A) (A)
       Virtual   (A) (A) (A) (A) (A) (A) (A) (A) (A) (A) (A) (A)
                 (A) (A) (A) (A) (A) (A) (A) (A) (A) (A) (A) (A)
                 (A) (A) (A) (A) (A) (A) (A) (A) (A) (A) (A) (A)
                 (A) (A) (A) (A) (A) (A) (A) (A) (A) (A) (A) (A)
                 (A) (A) (A) (A) (A) (A) (A) (A) (A) (A) (A) (A)
                 (A) (A) (A) (A) (A) (A) (A) (A) (A) (A) (A) (A)
                 (A) (A) (A) (A) (A) (A) (A) (A) (A) (A) (A) (A)
                 (A) (A) (A) (A) (A) (A) (A) (A) (A) (A) (A) (A)
                 (A) (A) (A) (A) (A) (A) (A) (A) (A) (A) (A) (A)
                 (A) (A) (A) (A) (A) (A) (A) (A) (A) (A) (A) (A)
                 (A) (A) (A) (A) (A) (A) (A) (A) (A) (A) (A) (A)
                 (A) (A) (A) (A) (A) (A) (A) (A) (A) (A) (A) (A)
                 (A) (A) (A) (A) (A) (A) (A) (A) (A) (A) (A) (A)
                 (A) (A) (A) (A) (A) (A) (A) (A) (A) (A) (A) (A)
                 (A) (A) (A) (A) (A) (A) (A) (A) (A) (A) (A) (A)
                 (A) (A) (A) (A) (A) (A) (A) (A) (A) (A) (A) (A)
                 (A) (A) (A) (A) (A) (A) (A) (A) (A) (A) (A) (A)
                 (A) (A) (A) (A) (A) (A) (A) (A) (A) (A) (A) (A)
 The electronic state of the initial guess is 1-A.
 Requested convergence on RMS density matrix=1.00D-08 within 128 cycles.
 Requested convergence on MAX density matrix=1.00D-06.
 Requested convergence on             energy=1.00D-06.
 No special actions if energy rises.
 Error on total polarization charges =  0.01155
 SCF Done:  E(RmPW1PW91) =  -610.637493793     A.U. after   12 cycles
             Convg  =    0.4613D-08             -V/T =  2.0090
 Range of M.O.s used for correlation:     1   259
 NBasis=   259 NAE=    43 NBE=    43 NFC=     0 NFV=     0
 NROrb=    259 NOA=    43 NOB=    43 NVA=   216 NVB=   216

 **** Warning!!: The largest alpha MO coefficient is  0.61883049D+02

 NEqPCM:  Using equilibrium solvation (IEInf=0, Eps=  78.3553, EpsInf=   1.7778)
          Differentiating once with respect to magnetic field using GIAOs.
          Electric field/nuclear overlap derivatives assumed to be zero.
 FoFCou: FMM=F IPFlag=           0 FMFlag=    10101102 FMFlg1=           0
         NFxFlg=    40000000 DoJE=F BraDBF=F KetDBF=T FulRan=T
         Omega=  0.000000  0.000000  1.000000  0.000000  0.000000 ICntrl=    6100 IOpCl=  0
         NMat0=    1 NMatS0=    1 NMatT0=    0 NMatD0=    1 NMtDS0=    0 NMtDT0=    0
         I1Cent=           7 NGrid=        1527.
 Symmetry not used in FoFCou.
          There are     3 degrees of freedom in the 1st order CPHF.  IDoFFX=0.
      3 vectors produced by pass  0 Test12= 3.10D-13 3.33D-08 XBig12= 2.08D+01 8.99D-01.
 AX will form     3 AO Fock derivatives at one time.
      3 vectors produced by pass  1 Test12= 3.10D-13 3.33D-08 XBig12= 4.97D-02 3.18D-02.
      3 vectors produced by pass  2 Test12= 3.10D-13 3.33D-08 XBig12= 1.18D-04 2.28D-03.
      3 vectors produced by pass  3 Test12= 3.10D-13 3.33D-08 XBig12= 5.71D-07 1.43D-04.
      3 vectors produced by pass  4 Test12= 3.10D-13 3.33D-08 XBig12= 1.72D-09 6.28D-06.
      3 vectors produced by pass  5 Test12= 3.10D-13 3.33D-08 XBig12= 5.07D-12 3.90D-07.
 Inverted reduced A of dimension    18 with in-core refinement.
 Calculating GIAO nuclear magnetic shielding tensors.
 SCF GIAO Magnetic shielding tensor (ppm):
      1  C    Isotropic =   132.7921   Anisotropy =    58.1634
   XX=   139.2997   YX=   -23.7766   ZX=   -19.1421
   XY=   -12.3533   YY=   131.6064   ZY=    28.9761
   XZ=   -14.7094   YZ=    16.9174   ZZ=   127.4702
   Eigenvalues:   106.4937   120.3149   171.5677
      2  C    Isotropic =   119.5503   Anisotropy =    49.4554
   XX=   129.1781   YX=   -11.1504   ZX=    21.9216
   XY=   -22.4021   YY=   128.4132   ZY=    -4.0320
   XZ=    13.8834   YZ=   -12.8806   ZZ=   101.0598
   Eigenvalues:    92.3532   113.7772   152.5206
      3  C    Isotropic =    91.5261   Anisotropy =    29.9575
   XX=   107.8103   YX=     0.7149   ZX=    11.5891
   XY=     4.1633   YY=    74.8627   ZY=     7.7543
   XZ=     2.7170   YZ=    11.0832   ZZ=    91.9053
   Eigenvalues:    70.6697    92.4108   111.4978
      4  C    Isotropic =   125.7386   Anisotropy =    53.8466
   XX=   135.7875   YX=     5.0244   ZX=    30.6410
   XY=    -2.2744   YY=   100.6740   ZY=    -8.3949
   XZ=    15.7050   YZ=     0.8048   ZZ=   140.7543
   Eigenvalues:    99.7810   115.7984   161.6363
      5  C    Isotropic =   123.9332   Anisotropy =    43.4480
   XX=   152.4657   YX=    -4.7147   ZX=    -1.4379
   XY=    11.2235   YY=   106.7577   ZY=    -2.4207
   XZ=     7.8842   YZ=    -8.4276   ZZ=   112.5763
   Eigenvalues:   103.1103   115.7908   152.8986
      6  C    Isotropic =   126.4023   Anisotropy =    55.8005
   XX=   135.9705   YX=    -7.0154   ZX=    31.0420
   XY=    -3.0368   YY=   106.0293   ZY=    -6.9423
   XZ=    19.2405   YZ=   -12.1588   ZZ=   137.2070
   Eigenvalues:   103.0761   112.5281   163.6026
      7  O    Isotropic =   249.2764   Anisotropy =    63.7451
   XX=   267.3525   YX=   -12.2611   ZX=    17.3127
   XY=   -23.7097   YY=   214.1083   ZY=    22.2715
   XZ=    31.4137   YZ=    30.4408   ZZ=   266.3685
   Eigenvalues:   193.6035   262.4526   291.7732
      8  O    Isotropic =   258.0045   Anisotropy =   114.1077
   XX=   289.1238   YX=    -5.2682   ZX=    30.4684
   XY=    -0.2595   YY=   186.0196   ZY=    42.9324
   XZ=    21.7919   YZ=    69.0976   ZZ=   298.8700
   Eigenvalues:   161.6759   278.2612   334.0762
      9  O    Isotropic =   289.2477   Anisotropy =    19.0228
   XX=   290.8435   YX=     6.6017   ZX=     0.4339
   XY=    13.4436   YY=   290.5590   ZY=    14.1169
   XZ=     9.6911   YZ=   -12.1963   ZZ=   286.3406
   Eigenvalues:   279.3373   286.4763   301.9296
     10  O    Isotropic =   309.5772   Anisotropy =    45.5391
   XX=   324.2046   YX=   -23.1238   ZX=   -11.0043
   XY=   -22.7633   YY=   306.4263   ZY=    -3.5857
   XZ=     7.5333   YZ=     1.3933   ZZ=   298.1006
   Eigenvalues:   290.2563   298.5386   339.9366
     11  O    Isotropic =   300.6288   Anisotropy =    52.3175
   XX=   300.9987   YX=     9.3261   ZX=    -5.6918
   XY=   -10.8088   YY=   333.3824   ZY=     2.4814
   XZ=   -20.4838   YZ=    20.0156   ZZ=   267.5052
   Eigenvalues:   261.4860   304.8932   335.5071
     12  H    Isotropic =    27.3138   Anisotropy =     6.7361
   XX=    30.8591   YX=    -0.7776   ZX=     1.8646
   XY=    -1.6850   YY=    26.7060   ZY=    -2.1682
   XZ=     1.6971   YZ=    -0.7398   ZZ=    24.3762
   Eigenvalues:    23.4998    26.6370    31.8045
     13  H    Isotropic =    28.0930   Anisotropy =    12.0543
   XX=    32.1889   YX=     3.4838   ZX=    -4.7015
   XY=     3.0599   YY=    25.9311   ZY=     0.0747
   XZ=    -5.5541   YZ=    -1.4921   ZZ=    26.1591
   Eigenvalues:    22.7861    25.3637    36.1292
     14  H    Isotropic =    26.7669   Anisotropy =     8.1106
   XX=    25.6892   YX=    -2.1977   ZX=    -4.1440
   XY=    -0.9304   YY=    26.0304   ZY=     2.1983
   XZ=    -3.2600   YZ=     1.8575   ZZ=    28.5812
   Eigenvalues:    23.1502    24.9766    32.1740
     15  H    Isotropic =    26.4239   Anisotropy =     6.8149
   XX=    26.0849   YX=    -1.8985   ZX=     0.0433
   XY=    -2.2482   YY=    30.0850   ZY=     0.3796
   XZ=     0.5127   YZ=    -0.3775   ZZ=    23.1019
   Eigenvalues:    23.0697    25.2349    30.9672
     16  H    Isotropic =    27.4249   Anisotropy =     7.2463
   XX=    25.5689   YX=     1.2837   ZX=     0.9675
   XY=     1.8624   YY=    27.0376   ZY=    -2.7597
   XZ=     0.0778   YZ=    -4.5137   ZZ=    29.6683
   Eigenvalues:    23.3409    26.6781    32.2558
     17  H    Isotropic =    27.8320   Anisotropy =     4.8272
   XX=    29.0716   YX=    -0.6048   ZX=     0.1495
   XY=    -1.1634   YY=    23.6231   ZY=     0.5144
   XZ=    -0.5948   YZ=     1.7956   ZZ=    30.8013
   Eigenvalues:    23.3191    29.1267    31.0501
     18  H    Isotropic =    27.4190   Anisotropy =     5.7098
   XX=    25.2436   YX=    -0.2726   ZX=     1.6967
   XY=    -0.4213   YY=    29.6283   ZY=     1.9808
   XZ=     1.2816   YZ=     2.8704   ZZ=    27.3851
   Eigenvalues:    24.0455    26.9860    31.2255
     19  H    Isotropic =    30.2233   Anisotropy =    13.3866
   XX=    23.2898   YX=    -0.8509   ZX=     3.1397
   XY=    -1.0773   YY=    31.5914   ZY=     4.9623
   XZ=     4.1463   YZ=     4.1779   ZZ=    35.7886
   Eigenvalues:    21.7847    29.7375    39.1477
     20  H    Isotropic =    28.2369   Anisotropy =    18.0040
   XX=    33.6361   YX=    -8.6016   ZX=     3.2533
   XY=    -8.1518   YY=    29.5515   ZY=     6.2011
   XZ=     3.4267   YZ=     4.3249   ZZ=    21.5230
   Eigenvalues:    15.9942    28.4769    40.2395
     21  H    Isotropic =    29.4106   Anisotropy =    19.6642
   XX=    28.1480   YX=    -6.0541   ZX=    -0.9637
   XY=    -5.7453   YY=    37.9268   ZY=     6.4977
   XZ=    -1.8092   YZ=     5.6196   ZZ=    22.1570
   Eigenvalues:    20.0435    25.6682    42.5200
 End of Minotr Frequency-dependent properties file   721 does not exist.
 End of Minotr Frequency-dependent properties file   722 does not exist.

 **********************************************************************

            Population analysis using the SCF density.

 **********************************************************************

 Orbital symmetries:
       Occupied  (A) (A) (A) (A) (A) (A) (A) (A) (A) (A) (A) (A)
                 (A) (A) (A) (A) (A) (A) (A) (A) (A) (A) (A) (A)
                 (A) (A) (A) (A) (A) (A) (A) (A) (A) (A) (A) (A)
                 (A) (A) (A) (A) (A) (A) (A)
       Virtual   (A) (A) (A) (A) (A) (A) (A) (A) (A) (A) (A) (A)
                 (A) (A) (A) (A) (A) (A) (A) (A) (A) (A) (A) (A)
                 (A) (A) (A) (A) (A) (A) (A) (A) (A) (A) (A) (A)
                 (A) (A) (A) (A) (A) (A) (A) (A) (A) (A) (A) (A)
                 (A) (A) (A) (A) (A) (A) (A) (A) (A) (A) (A) (A)
                 (A) (A) (A) (A) (A) (A) (A) (A) (A) (A) (A) (A)
                 (A) (A) (A) (A) (A) (A) (A) (A) (A) (A) (A) (A)
                 (A) (A) (A) (A) (A) (A) (A) (A) (A) (A) (A) (A)
                 (A) (A) (A) (A) (A) (A) (A) (A) (A) (A) (A) (A)
                 (A) (A) (A) (A) (A) (A) (A) (A) (A) (A) (A) (A)
                 (A) (A) (A) (A) (A) (A) (A) (A) (A) (A) (A) (A)
                 (A) (A) (A) (A) (A) (A) (A) (A) (A) (A) (A) (A)
                 (A) (A) (A) (A) (A) (A) (A) (A) (A) (A) (A) (A)
                 (A) (A) (A) (A) (A) (A) (A) (A) (A) (A) (A) (A)
                 (A) (A) (A) (A) (A) (A) (A) (A) (A) (A) (A) (A)
                 (A) (A) (A) (A) (A) (A) (A) (A) (A) (A) (A) (A)
                 (A) (A) (A) (A) (A) (A) (A) (A) (A) (A) (A) (A)
                 (A) (A) (A) (A) (A) (A) (A) (A) (A) (A) (A) (A)
 The electronic state is 1-A.
 Alpha  occ. eigenvalues --  -19.27689 -19.27666 -19.27232 -19.26718 -19.25331
 Alpha  occ. eigenvalues --  -10.36019 -10.31802 -10.31769 -10.31671 -10.31472
 Alpha  occ. eigenvalues --  -10.30555  -1.14454  -1.08938  -1.07255  -1.05319
 Alpha  occ. eigenvalues --   -1.04033  -0.82002  -0.80551  -0.71347  -0.68265
 Alpha  occ. eigenvalues --   -0.64985  -0.60618  -0.57701  -0.56209  -0.55230
 Alpha  occ. eigenvalues --   -0.52198  -0.49813  -0.49170  -0.47116  -0.46836
 Alpha  occ. eigenvalues --   -0.45225  -0.43042  -0.41729  -0.39925  -0.39478
 Alpha  occ. eigenvalues --   -0.37811  -0.37111  -0.35936  -0.33149  -0.32176
 Alpha  occ. eigenvalues --   -0.31263  -0.29581  -0.26946
 Alpha virt. eigenvalues --    0.00591   0.00693   0.02301   0.02789   0.04032
 Alpha virt. eigenvalues --    0.04342   0.05038   0.05226   0.05540   0.08165
 Alpha virt. eigenvalues --    0.08421   0.09249   0.09452   0.10668   0.11549
 Alpha virt. eigenvalues --    0.12212   0.12635   0.13300   0.13736   0.13982
 Alpha virt. eigenvalues --    0.15193   0.15863   0.16597   0.16984   0.17130
 Alpha virt. eigenvalues --    0.18231   0.18782   0.19983   0.20023   0.20547
 Alpha virt. eigenvalues --    0.20851   0.21568   0.22025   0.23904   0.24225
 Alpha virt. eigenvalues --    0.25108   0.25405   0.25906   0.26500   0.27336
 Alpha virt. eigenvalues --    0.27647   0.28341   0.29103   0.29820   0.30700
 Alpha virt. eigenvalues --    0.31207   0.32189   0.32608   0.33802   0.34142
 Alpha virt. eigenvalues --    0.34768   0.35080   0.35978   0.36718   0.37438
 Alpha virt. eigenvalues --    0.37626   0.38912   0.39331   0.39943   0.41416
 Alpha virt. eigenvalues --    0.42389   0.43121   0.45173   0.45805   0.46488
 Alpha virt. eigenvalues --    0.51144   0.66021   0.67133   0.67852   0.69819
 Alpha virt. eigenvalues --    0.71450   0.73693   0.74884   0.76479   0.76852
 Alpha virt. eigenvalues --    0.78730   0.80869   0.82561   0.83630   0.84974
 Alpha virt. eigenvalues --    0.87231   0.92497   0.92875   0.95121   0.97668
 Alpha virt. eigenvalues --    1.01941   1.03915   1.04186   1.05698   1.06753
 Alpha virt. eigenvalues --    1.08094   1.09035   1.10197   1.12434   1.14116
 Alpha virt. eigenvalues --    1.18954   1.22744   1.24199   1.26560   1.27028
 Alpha virt. eigenvalues --    1.28567   1.29513   1.30200   1.32256   1.33482
 Alpha virt. eigenvalues --    1.35110   1.36607   1.38484   1.39639   1.41918
 Alpha virt. eigenvalues --    1.43959   1.44906   1.47690   1.48081   1.51661
 Alpha virt. eigenvalues --    1.52107   1.53446   1.57351   1.58358   1.60088
 Alpha virt. eigenvalues --    1.62600   1.64195   1.66026   1.68449   1.69264
 Alpha virt. eigenvalues --    1.72098   1.74165   1.75203   1.76942   1.79165
 Alpha virt. eigenvalues --    1.79470   1.82770   1.83917   1.88116   1.89712
 Alpha virt. eigenvalues --    1.91084   1.93344   1.95099   1.97633   1.98291
 Alpha virt. eigenvalues --    1.99349   2.01340   2.02374   2.04214   2.06070
 Alpha virt. eigenvalues --    2.10120   2.12561   2.14719   2.16653   2.17859
 Alpha virt. eigenvalues --    2.20480   2.21945   2.25124   2.31383   2.32310
 Alpha virt. eigenvalues --    2.34140   2.36482   2.38327   2.41243   2.43575
 Alpha virt. eigenvalues --    2.45748   2.46844   2.49987   2.53529   2.54931
 Alpha virt. eigenvalues --    2.55900   2.57463   2.58699   2.61341   2.63277
 Alpha virt. eigenvalues --    2.64887   2.65464   2.66848   2.68125   2.70354
 Alpha virt. eigenvalues --    2.72093   2.73160   2.76335   2.77791   2.81232
 Alpha virt. eigenvalues --    2.81422   2.84408   2.85749   2.87997   2.92671
 Alpha virt. eigenvalues --    2.93293   2.95729   2.97979   3.00635   3.04105
 Alpha virt. eigenvalues --    3.06341   3.07694   3.11209   3.18074   3.21229
 Alpha virt. eigenvalues --    3.35033   3.41064   3.43873   3.46075   3.48751
 Alpha virt. eigenvalues --    3.50455   3.52570   3.54038   3.60369   3.61398
 Alpha virt. eigenvalues --    4.31733   4.31909   4.43361   4.49601   4.51436
 Alpha virt. eigenvalues --    4.58839   4.65316   4.75762   4.92852   4.94017
 Alpha virt. eigenvalues --    5.07108
          Condensed to atoms (all electrons):
              1          2          3          4          5          6
     1  C    5.575659   0.096136  -0.255142   0.101192   0.013143  -0.405669
     2  C    0.096136   6.235829  -0.276088  -0.042010   0.083300  -0.365862
     3  C   -0.255142  -0.276088   6.106017  -0.042644  -0.315490  -0.035704
     4  C    0.101192  -0.042010  -0.042644   5.980840  -0.117561  -0.306286
     5  C    0.013143   0.083300  -0.315490  -0.117561   6.382758  -0.298011
     6  C   -0.405669  -0.365862  -0.035704  -0.306286  -0.298011   7.167342
     7  O   -0.042206   0.164273   0.332370   0.042879  -0.159674  -0.206021
     8  O    0.203088  -0.219683   0.267540  -0.028691  -0.154553   0.148589
     9  O    0.045550  -0.059598   0.032082  -0.016168  -0.000554   0.079619
    10  O    0.003777   0.016206   0.006857   0.285142  -0.051877  -0.140548
    11  O    0.004201  -0.008439  -0.074752  -0.108308   0.179591   0.041536
    12  H    0.450731  -0.099443   0.018869   0.002109   0.003905  -0.012432
    13  H    0.368164  -0.043324  -0.010247  -0.009452   0.001569   0.062404
    14  H    0.009712   0.306398   0.003687   0.021057  -0.008826   0.012170
    15  H    0.002317   0.004602   0.388163   0.017839  -0.062966   0.024832
    16  H   -0.001623   0.015447   0.026645   0.350297   0.026090  -0.104287
    17  H    0.021259  -0.009045  -0.043417  -0.008843   0.350669  -0.017502
    18  H    0.027595  -0.053859  -0.017790  -0.021008   0.032573   0.382339
    19  H    0.017056  -0.063381  -0.008961  -0.027450   0.026035   0.049493
    20  H    0.000523  -0.000262  -0.001385  -0.010577  -0.033120   0.020814
    21  H    0.000076  -0.003282  -0.040238   0.007273   0.040880   0.005339
              7          8          9         10         11         12
     1  C   -0.042206   0.203088   0.045550   0.003777   0.004201   0.450731
     2  C    0.164273  -0.219683  -0.059598   0.016206  -0.008439  -0.099443
     3  C    0.332370   0.267540   0.032082   0.006857  -0.074752   0.018869
     4  C    0.042879  -0.028691  -0.016168   0.285142  -0.108308   0.002109
     5  C   -0.159674  -0.154553  -0.000554  -0.051877   0.179591   0.003905
     6  C   -0.206021   0.148589   0.079619  -0.140548   0.041536  -0.012432
     7  O    8.326634  -0.081641   0.010978   0.006277   0.013836   0.011525
     8  O   -0.081641   8.375647  -0.016756   0.000182   0.007524  -0.049167
     9  O    0.010978  -0.016756   8.210443   0.006531  -0.001133   0.007471
    10  O    0.006277   0.000182   0.006531   8.244228  -0.017882  -0.000003
    11  O    0.013836   0.007524  -0.001133  -0.017882   8.328362   0.000003
    12  H    0.011525  -0.049167   0.007471  -0.000003   0.000003   0.513986
    13  H   -0.007333  -0.038684  -0.001959   0.000018   0.000086  -0.033514
    14  H   -0.039752   0.010995   0.004276  -0.000792   0.000230   0.001648
    15  H   -0.059556  -0.033349  -0.000591  -0.001108  -0.001080  -0.000230
    16  H    0.001902  -0.002169   0.004756  -0.048743   0.002396  -0.000007
    17  H    0.009971   0.002134   0.002089   0.004374  -0.034430  -0.000059
    18  H    0.005168   0.000129  -0.052605  -0.005005  -0.000917   0.000006
    19  H   -0.001284   0.012591   0.249884  -0.000351  -0.000438  -0.002396
    20  H   -0.001264  -0.000205  -0.000158   0.252317   0.027084   0.000001
    21  H   -0.001928   0.000205  -0.000111   0.001630   0.245456   0.000000
             13         14         15         16         17         18
     1  C    0.368164   0.009712   0.002317  -0.001623   0.021259   0.027595
     2  C   -0.043324   0.306398   0.004602   0.015447  -0.009045  -0.053859
     3  C   -0.010247   0.003687   0.388163   0.026645  -0.043417  -0.017790
     4  C   -0.009452   0.021057   0.017839   0.350297  -0.008843  -0.021008
     5  C    0.001569  -0.008826  -0.062966   0.026090   0.350669   0.032573
     6  C    0.062404   0.012170   0.024832  -0.104287  -0.017502   0.382339
     7  O   -0.007333  -0.039752  -0.059556   0.001902   0.009971   0.005168
     8  O   -0.038684   0.010995  -0.033349  -0.002169   0.002134   0.000129
     9  O   -0.001959   0.004276  -0.000591   0.004756   0.002089  -0.052605
    10  O    0.000018  -0.000792  -0.001108  -0.048743   0.004374  -0.005005
    11  O    0.000086   0.000230  -0.001080   0.002396  -0.034430  -0.000917
    12  H   -0.033514   0.001648  -0.000230  -0.000007  -0.000059   0.000006
    13  H    0.535134  -0.001752   0.000899   0.000002  -0.000030  -0.000075
    14  H   -0.001752   0.495781   0.000061  -0.000100   0.000029  -0.006297
    15  H    0.000899   0.000061   0.535736  -0.000155  -0.000196   0.000002
    16  H    0.000002  -0.000100  -0.000155   0.562168  -0.004483  -0.003152
    17  H   -0.000030   0.000029  -0.000196  -0.004483   0.539179  -0.000097
    18  H   -0.000075  -0.006297   0.000002  -0.003152  -0.000097   0.519588
    19  H    0.000217  -0.000004   0.000042  -0.002148  -0.000338   0.006270
    20  H   -0.000001   0.000010  -0.000081   0.000999   0.000685   0.000181
    21  H    0.000000   0.000000   0.003234  -0.000201  -0.004730   0.000004
             19         20         21
     1  C    0.017056   0.000523   0.000076
     2  C   -0.063381  -0.000262  -0.003282
     3  C   -0.008961  -0.001385  -0.040238
     4  C   -0.027450  -0.010577   0.007273
     5  C    0.026035  -0.033120   0.040880
     6  C    0.049493   0.020814   0.005339
     7  O   -0.001284  -0.001264  -0.001928
     8  O    0.012591  -0.000205   0.000205
     9  O    0.249884  -0.000158  -0.000111
    10  O   -0.000351   0.252317   0.001630
    11  O   -0.000438   0.027084   0.245456
    12  H   -0.002396   0.000001   0.000000
    13  H    0.000217  -0.000001   0.000000
    14  H   -0.000004   0.000010   0.000000
    15  H    0.000042  -0.000081   0.003234
    16  H   -0.002148   0.000999  -0.000201
    17  H   -0.000338   0.000685  -0.004730
    18  H    0.006270   0.000181   0.000004
    19  H    0.367745  -0.000004   0.000006
    20  H   -0.000004   0.343595  -0.000493
    21  H    0.000006  -0.000493   0.339082
 Mulliken atomic charges:
              1
     1  C   -0.235542
     2  C    0.322084
     3  C   -0.060374
     4  C   -0.069627
     5  C    0.062119
     6  C   -0.102156
     7  O   -0.325153
     8  O   -0.403727
     9  O   -0.504044
    10  O   -0.561230
    11  O   -0.602925
    12  H    0.186999
    13  H    0.177879
    14  H    0.191469
    15  H    0.181584
    16  H    0.176366
    17  H    0.192780
    18  H    0.186951
    19  H    0.377414
    20  H    0.401339
    21  H    0.407797
 Sum of Mulliken atomic charges =   0.00000
 Mulliken charges with hydrogens summed into heavy atoms:
              1
     1  C    0.129335
     2  C    0.513553
     3  C    0.121210
     4  C    0.106739
     5  C    0.254898
     6  C    0.084795
     7  O   -0.325153
     8  O   -0.403727
     9  O   -0.126630
    10  O   -0.159892
    11  O   -0.195128
 Sum of Mulliken charges with hydrogens summed into heavy atoms =   0.00000
 Electronic spatial extent (au):  <R**2>=           1407.9355
 Charge=              0.0000 electrons
 Dipole moment (field-independent basis, Debye):
    X=             -0.6267    Y=             -3.1480    Z=             -2.0639  Tot=              3.8161
 Quadrupole moment (field-independent basis, Debye-Ang):
   XX=            -61.4426   YY=            -67.7183   ZZ=            -65.2922
   XY=             -6.1731   XZ=             -6.6202   YZ=              2.0248
 Traceless Quadrupole moment (field-independent basis, Debye-Ang):
   XX=              3.3751   YY=             -2.9006   ZZ=             -0.4745
   XY=             -6.1731   XZ=             -6.6202   YZ=              2.0248
 Octapole moment (field-independent basis, Debye-Ang**2):
  XXX=             -3.3067  YYY=            -28.5048  ZZZ=            -12.7343  XYY=             20.9881
  XXY=            -21.0584  XXZ=              2.4945  XZZ=             -2.1845  YZZ=              1.7410
  YYZ=              2.9038  XYZ=             -0.5129
 Hexadecapole moment (field-independent basis, Debye-Ang**3):
 XXXX=           -805.6531 YYYY=           -584.6599 ZZZZ=           -288.7292 XXXY=            -22.0444
 XXXZ=              2.3388 YYYX=            -35.0672 YYYZ=             15.9269 ZZZX=             -0.2561
 ZZZY=              2.0005 XXYY=           -235.8785 XXZZ=           -178.2795 YYZZ=           -158.7714
 XXYZ=              6.9067 YYXZ=            -35.8986 ZZXY=            -15.6794
 N-N= 7.300774119249D+02 E-N=-2.890070670332D+03  KE= 6.051989132025D+02
 1\1\GINC-COMPUTE-8-20\SP\RmPW1PW91\6-31+G(d,p)\C6H10O5\MMARCARINO.IQUI
 R\12-Apr-2019\0\\# mpw1pw91/6-31+g** nmr scrf=(pcm,solvent=water)\\com
 ment\\0,1\C,0,-2.12142,-0.667774,0.05218\C,0,-1.219731,0.193761,0.9274
 99\C,0,0.076427,-1.372868,0.046989\C,0,0.928216,0.994282,-0.249788\C,0
 ,1.079735,-0.481028,-0.714088\C,0,-0.526161,1.355231,0.133155\O,0,-0.2
 40466,-0.80151,1.298384\O,0,-1.150683,-1.41898,-0.702144\O,0,-1.281958
 ,1.790611,-0.99572\O,0,1.737069,1.247814,0.890713\O,0,2.434261,-0.8333
 32,-0.442043\H,0,-2.75677,-0.112227,-0.637843\H,0,-2.736755,-1.336002,
 0.66581\H,0,-1.695401,0.546479,1.842956\H,0,0.460217,-2.38546,0.212466
 \H,0,1.224542,1.658959,-1.0744\H,0,0.87058,-0.565691,-1.787552\H,0,-0.
 46094,2.23345,0.779767\H,0,-1.25456,1.091353,-1.669645\H,0,2.465973,0.
 602583,0.8479\H,0,2.594925,-1.739887,-0.748657\\Version=EM64L-G09RevC.
 01\State=1-A\HF=-610.6374938\RMSD=4.613e-09\Dipole=-0.2465558,-1.23852
 16,-0.8119957\Quadrupole=2.5092896,-2.1564974,-0.3527921,-4.5895666,-4
 .921927,1.5053617\PG=C01 [X(C6H10O5)]\\@


 THE LENGTH OF A MEETING IS PROPORTIONAL TO THE
 SQUARE OF THE PARTICIPANTS.
 Job cpu time:  0 days  0 hours 16 minutes 13.6 seconds.
 File lengths (MBytes):  RWF=     83 Int=      0 D2E=      0 Chk=      5 Scr=      1
 Normal termination of Gaussian 09 at Fri Apr 12 11:21:53 2019.
