 Entering Gaussian System, Link 0=g09
 Input=/home/asarotti.iquir/SCF3/04_RRR_Levo08_OPTB_energy_b3lyp_smd.gjc
 Output=/home/asarotti.iquir/SCF3/04_RRR_Levo08_OPTB_energy_b3lyp_smd.log
 Initial command:
 /share/apps/Gaussian09/EM64T.SSE4.2-enabled/g09/l1.exe /tmp/Gau-7820.inp -scrdir=/tmp/
 Entering Link 1 = /share/apps/Gaussian09/EM64T.SSE4.2-enabled/g09/l1.exe PID=      7821.
  
 Copyright (c) 1988,1990,1992,1993,1995,1998,2003,2009,2011,
            Gaussian, Inc.  All Rights Reserved.
  
 This is part of the Gaussian(R) 09 program.  It is based on
 the Gaussian(R) 03 system (copyright 2003, Gaussian, Inc.),
 the Gaussian(R) 98 system (copyright 1998, Gaussian, Inc.),
 the Gaussian(R) 94 system (copyright 1995, Gaussian, Inc.),
 the Gaussian 92(TM) system (copyright 1992, Gaussian, Inc.),
 the Gaussian 90(TM) system (copyright 1990, Gaussian, Inc.),
 the Gaussian 88(TM) system (copyright 1988, Gaussian, Inc.),
 the Gaussian 86(TM) system (copyright 1986, Carnegie Mellon
 University), and the Gaussian 82(TM) system (copyright 1983,
 Carnegie Mellon University). Gaussian is a federally registered
 trademark of Gaussian, Inc.
  
 This software contains proprietary and confidential information,
 including trade secrets, belonging to Gaussian, Inc.
  
 This software is provided under written license and may be
 used, copied, transmitted, or stored only in accord with that
 written license.
  
 The following legend is applicable only to US Government
 contracts under FAR:
  
                    RESTRICTED RIGHTS LEGEND
  
 Use, reproduction and disclosure by the US Government is
 subject to restrictions as set forth in subparagraphs (a)
 and (c) of the Commercial Computer Software - Restricted
 Rights clause in FAR 52.227-19.
  
 Gaussian, Inc.
 340 Quinnipiac St., Bldg. 40, Wallingford CT 06492
  
  
 ---------------------------------------------------------------
 Warning -- This program may not be used in any manner that
 competes with the business of Gaussian, Inc. or will provide
 assistance to any competitor of Gaussian, Inc.  The licensee
 of this program is prohibited from giving any competitor of
 Gaussian, Inc. access to this program.  By using this program,
 the user acknowledges that Gaussian, Inc. is engaged in the
 business of creating and licensing software in the field of
 computational chemistry and represents and warrants to the
 licensee that it is not a competitor of Gaussian, Inc. and that
 it will not use this program in any manner prohibited above.
 ---------------------------------------------------------------
  

 Cite this work as:
 Gaussian 09, Revision C.01,
 M. J. Frisch, G. W. Trucks, H. B. Schlegel, G. E. Scuseria, 
 M. A. Robb, J. R. Cheeseman, G. Scalmani, V. Barone, B. Mennucci, 
 G. A. Petersson, H. Nakatsuji, M. Caricato, X. Li, H. P. Hratchian, 
 A. F. Izmaylov, J. Bloino, G. Zheng, J. L. Sonnenberg, M. Hada, 
 M. Ehara, K. Toyota, R. Fukuda, J. Hasegawa, M. Ishida, T. Nakajima, 
 Y. Honda, O. Kitao, H. Nakai, T. Vreven, J. A. Montgomery, Jr., 
 J. E. Peralta, F. Ogliaro, M. Bearpark, J. J. Heyd, E. Brothers, 
 K. N. Kudin, V. N. Staroverov, T. Keith, R. Kobayashi, J. Normand, 
 K. Raghavachari, A. Rendell, J. C. Burant, S. S. Iyengar, J. Tomasi, 
 M. Cossi, N. Rega, J. M. Millam, M. Klene, J. E. Knox, J. B. Cross, 
 V. Bakken, C. Adamo, J. Jaramillo, R. Gomperts, R. E. Stratmann, 
 O. Yazyev, A. J. Austin, R. Cammi, C. Pomelli, J. W. Ochterski, 
 R. L. Martin, K. Morokuma, V. G. Zakrzewski, G. A. Voth, 
 P. Salvador, J. J. Dannenberg, S. Dapprich, A. D. Daniels, 
 O. Farkas, J. B. Foresman, J. V. Ortiz, J. Cioslowski, 
 and D. J. Fox, Gaussian, Inc., Wallingford CT, 2010.
 
 ******************************************
 Gaussian 09:  EM64L-G09RevC.01 23-Sep-2011
                15-Apr-2019 
 ******************************************
 %nprocshared=4
 Will use up to    4 processors via shared memory.
 -----------------------------------------------------------
 # B3LYP/6-31+G** test scrf=(pcm,solvent=water,smd,dovacuum)
 -----------------------------------------------------------
 1/38=1/1;
 2/12=2,17=6,18=5,40=1/2;
 3/5=1,6=6,7=111,11=2,16=1,25=1,30=1,70=32101,72=1,74=-5/1,2,3;
 4//1;
 5/5=2,38=5,53=1/2;
 6/7=2,8=2,9=2,10=2,28=1/1;
 99/5=1,9=1/99;
 -------
 comment
 -------
 Charge =  0 Multiplicity = 1
 Symbolic Z-Matrix:
 6                    -2.28262   0.33833  -0.25793 
 6                    -1.06653   0.93067   0.45677 
 6                    -0.72009  -1.25233   0.33052 
 6                     1.15001   0.19592  -0.59891 
 6                     0.55103  -1.23696  -0.55124 
 6                     0.08388   1.31937  -0.51601 
 8                    -0.68349  -0.1973    1.2735 
 8                    -1.87716  -1.02193  -0.48208 
 8                     0.70574   2.53932  -0.14379 
 8                     2.02405   0.34804   0.54312 
 8                     1.52502  -2.15251  -0.07974 
 1                    -2.51068   0.81036  -1.21762 
 1                    -3.17253   0.36688   0.38237 
 1                    -1.29941   1.76762   1.11655 
 1                    -0.8143   -2.20283   0.86311 
 1                     1.73617   0.32282  -1.5125 
 1                     0.26609  -1.5569   -1.55808 
 1                    -0.33298   1.48384  -1.51527 
 1                     1.34539   2.28711   0.54874 
 1                     2.92532   0.4878    0.21412 
 1                     2.00948  -1.66166   0.61133 
 
                          Input orientation:                          
 ---------------------------------------------------------------------
 Center     Atomic      Atomic             Coordinates (Angstroms)
 Number     Number       Type             X           Y           Z
 ---------------------------------------------------------------------
      1          6           0       -2.282615    0.338331   -0.257928
      2          6           0       -1.066531    0.930674    0.456768
      3          6           0       -0.720092   -1.252329    0.330518
      4          6           0        1.150013    0.195922   -0.598914
      5          6           0        0.551025   -1.236963   -0.551242
      6          6           0        0.083877    1.319372   -0.516011
      7          8           0       -0.683485   -0.197296    1.273503
      8          8           0       -1.877158   -1.021930   -0.482077
      9          8           0        0.705743    2.539315   -0.143787
     10          8           0        2.024049    0.348040    0.543115
     11          8           0        1.525023   -2.152514   -0.079742
     12          1           0       -2.510677    0.810362   -1.217621
     13          1           0       -3.172533    0.366882    0.382370
     14          1           0       -1.299406    1.767618    1.116553
     15          1           0       -0.814302   -2.202834    0.863107
     16          1           0        1.736167    0.322821   -1.512495
     17          1           0        0.266092   -1.556904   -1.558076
     18          1           0       -0.332982    1.483842   -1.515270
     19          1           0        1.345392    2.287107    0.548736
     20          1           0        2.925317    0.487800    0.214123
     21          1           0        2.009481   -1.661660    0.611332
 ---------------------------------------------------------------------
                    Distance matrix (angstroms):
                    1          2          3          4          5
     1  C    0.000000
     2  C    1.529876   0.000000
     3  C    2.306067   2.213924   0.000000
     4  C    3.452461   2.562692   2.541371   0.000000
     5  C    3.255319   2.886386   1.547086   1.553776   0.000000
     6  C    2.574749   1.555900   2.824292   1.551019   2.598907
     7  O    2.278024   1.444333   1.415505   2.649959   2.436107
     8  O    1.436993   2.313268   1.432549   3.265054   2.438667
     9  O    3.713171   2.467660   4.078546   2.428170   3.801346
    10  O    4.380539   3.146205   3.183817   1.446136   2.424799
    11  O    4.553478   4.063255   2.453403   2.434199   1.417469
    12  H    1.093543   2.214410   3.139685   3.763109   3.742943
    13  H    1.096700   2.181431   2.939218   4.435826   4.160389
    14  H    2.213314   1.090881   3.173883   3.378270   3.902966
    15  H    3.141685   3.169795   1.093612   3.427837   2.190299
    16  H    4.210082   3.478879   3.451232   1.092845   2.182085
    17  H    3.431939   3.467495   2.152234   2.184881   1.094195
    18  H    2.587310   2.175551   3.323164   2.167423   3.018874
    19  H    4.196531   2.768707   4.103834   2.393393   3.776247
    20  H    5.231417   4.023663   4.041114   1.974317   3.032796
    21  H    4.814319   4.025660   2.774343   2.377812   1.912862
                    6          7          8          9         10
     6  C    0.000000
     7  O    2.468094   0.000000
     8  O    3.054260   2.277485   0.000000
     9  O    1.418989   3.380489   4.412288   0.000000
    10  O    2.414436   2.856851   4.259959   2.647914   0.000000
    11  O    3.784339   3.245251   3.607621   4.763253   2.624833
    12  H    2.735518   3.249570   2.073563   3.806278   4.886479
    13  H    3.509777   2.703290   2.086639   4.476308   5.199102
    14  H    2.186244   2.065158   3.266649   2.490903   3.659151
    15  H    3.887753   2.051273   2.081758   5.080586   3.829568
    16  H    2.171671   3.726530   3.990769   2.801425   2.075824
    17  H    3.064648   3.281474   2.457131   4.355745   3.336799
    18  H    1.095144   3.275108   3.119433   2.018400   3.329052
    19  H    1.913535   3.288448   4.732561   0.975883   2.054407
    20  H    3.049326   3.822969   5.082100   3.043571   0.969563
    21  H    3.723628   3.136064   4.087880   4.462973   2.010910
                   11         12         13         14         15
    11  O    0.000000
    12  H    5.134226   0.000000
    13  H    5.350508   1.787372   0.000000
    14  H    4.977545   2.798550   2.451467   0.000000
    15  H    2.522685   4.035650   3.520767   4.007998   0.000000
    16  H    2.867864   4.284896   5.261919   4.267790   4.304336
    17  H    2.031042   3.664738   4.392087   4.544983   2.728847
    18  H    4.328511   2.298810   3.593284   2.817977   4.413607
    19  H    4.487481   4.491109   4.911882   2.754495   4.992262
    20  H    3.003071   5.630628   6.101369   4.505619   4.652466
    21  H    0.976330   5.466973   5.569621   4.792069   2.886176
                   16         17         18         19         20
    16  H    0.000000
    17  H    2.386748   0.000000
    18  H    2.372626   3.099493   0.000000
    19  H    2.873986   4.514418   2.778902   0.000000
    20  H    2.102975   3.793808   3.820918   2.417775   0.000000
    21  H    2.919504   2.785087   4.461362   4.004709   2.369960
                   21
    21  H    0.000000
 Stoichiometry    C6H10O5
 Framework group  C1[X(C6H10O5)]
 Deg. of freedom    57
 Full point group                 C1      NOp   1
 Largest Abelian subgroup         C1      NOp   1
 Largest concise Abelian subgroup C1      NOp   1
                         Standard orientation:                         
 ---------------------------------------------------------------------
 Center     Atomic      Atomic             Coordinates (Angstroms)
 Number     Number       Type             X           Y           Z
 ---------------------------------------------------------------------
      1          6           0       -2.282615    0.338333   -0.257928
      2          6           0       -1.066530    0.930675    0.456768
      3          6           0       -0.720093   -1.252328    0.330518
      4          6           0        1.150013    0.195921   -0.598914
      5          6           0        0.551024   -1.236963   -0.551242
      6          6           0        0.083878    1.319372   -0.516011
      7          8           0       -0.683485   -0.197295    1.273503
      8          8           0       -1.877159   -1.021929   -0.482077
      9          8           0        0.705745    2.539315   -0.143787
     10          8           0        2.024049    0.348039    0.543115
     11          8           0        1.525022   -2.152515   -0.079742
     12          1           0       -2.510676    0.810364   -1.217621
     13          1           0       -3.172533    0.366884    0.382370
     14          1           0       -1.299405    1.767619    1.116553
     15          1           0       -0.814304   -2.202833    0.863107
     16          1           0        1.736167    0.322820   -1.512495
     17          1           0        0.266091   -1.556904   -1.558076
     18          1           0       -0.332981    1.483842   -1.515270
     19          1           0        1.345394    2.287106    0.548736
     20          1           0        2.925318    0.487798    0.214123
     21          1           0        2.009480   -1.661661    0.611332
 ---------------------------------------------------------------------
 Rotational constants (GHZ):      1.4425649      1.3461111      0.8397649
 Standard basis: 6-31+G(d,p) (6D, 7F)
 There are   259 symmetry adapted basis functions of A   symmetry.
 Integral buffers will be    131072 words long.
 Raffenetti 2 integral format.
 Two-electron integral symmetry is turned on.
   259 basis functions,   422 primitive gaussians,   259 cartesian basis functions
    43 alpha electrons       43 beta electrons
       nuclear repulsion energy       725.4019471788 Hartrees.
 NAtoms=   21 NActive=   21 NUniq=   21 SFac= 1.00D+00 NAtFMM=   60 NAOKFM=F Big=F
 ------------------------------------------------------------------------------
 Polarizable Continuum Model (PCM)
 =================================
 Model                : C-PCM.
 Atomic radii         : SMD-Coulomb.
 Polarization charges : Total charges.
 Charge compensation  : None.
 Solution method      : Matrix inversion.
 Cavity type          : VdW (van der Waals Surface) (Alpha=1.000).
 Cavity algorithm     : GePol (No added spheres)
                        Default sphere list used, NSphG=   21.
                        Lebedev-Laikov grids with approx.  5.0 points / Ang**2.
                        Smoothing algorithm: Karplus/York (Gamma=1.0000).
                        Polarization charges: spherical gaussians, with
                                              point-specific exponents (IZeta= 3).
                        Self-potential: point-specific (ISelfS= 7).
                        Self-field    : sphere-specific E.n sum rule (ISelfD= 2).
 Solvent              : Water, Eps=  78.355300 Eps(inf)=   1.777849
 ------------------------------------------------------------------------------
 ------------------------------------------------------------------------------
 Atomic radii for non-electrostatic terms: SMD-CDS.
 ------------------------------------------------------------------------------
 Nuclear repulsion after PCM non-electrostatic terms =      725.4069897230 Hartrees.
 One-electron integrals computed using PRISM.
 NBasis=   259 RedAO= T  NBF=   259
 NBsUse=   259 1.00D-06 NBFU=   259
 Harris functional with IExCor=  402 diagonalized for initial guess.
 ExpMin= 4.38D-02 ExpMax= 5.48D+03 ExpMxC= 8.25D+02 IAcc=2 IRadAn=         4 AccDes= 0.00D+00
 HarFok:  IExCor=  402 AccDes= 0.00D+00 IRadAn=         4 IDoV= 1
 ScaDFX=  1.000000  1.000000  1.000000  1.000000
 FoFCou: FMM=F IPFlag=           0 FMFlag=      100000 FMFlg1=           0
         NFxFlg=           0 DoJE=T BraDBF=F KetDBF=T FulRan=T
         Omega=  0.000000  0.000000  1.000000  0.000000  0.000000 ICntrl=     500 IOpCl=  0
         NMat0=    1 NMatS0=    1 NMatT0=    0 NMatD0=    1 NMtDS0=    0 NMtDT0=    0
         I1Cent=           4 NGrid=           0.
 Petite list used in FoFCou.
 Initial guess orbital symmetries:
       Occupied  (A) (A) (A) (A) (A) (A) (A) (A) (A) (A) (A) (A)
                 (A) (A) (A) (A) (A) (A) (A) (A) (A) (A) (A) (A)
                 (A) (A) (A) (A) (A) (A) (A) (A) (A) (A) (A) (A)
                 (A) (A) (A) (A) (A) (A) (A)
       Virtual   (A) (A) (A) (A) (A) (A) (A) (A) (A) (A) (A) (A)
                 (A) (A) (A) (A) (A) (A) (A) (A) (A) (A) (A) (A)
                 (A) (A) (A) (A) (A) (A) (A) (A) (A) (A) (A) (A)
                 (A) (A) (A) (A) (A) (A) (A) (A) (A) (A) (A) (A)
                 (A) (A) (A) (A) (A) (A) (A) (A) (A) (A) (A) (A)
                 (A) (A) (A) (A) (A) (A) (A) (A) (A) (A) (A) (A)
                 (A) (A) (A) (A) (A) (A) (A) (A) (A) (A) (A) (A)
                 (A) (A) (A) (A) (A) (A) (A) (A) (A) (A) (A) (A)
                 (A) (A) (A) (A) (A) (A) (A) (A) (A) (A) (A) (A)
                 (A) (A) (A) (A) (A) (A) (A) (A) (A) (A) (A) (A)
                 (A) (A) (A) (A) (A) (A) (A) (A) (A) (A) (A) (A)
                 (A) (A) (A) (A) (A) (A) (A) (A) (A) (A) (A) (A)
                 (A) (A) (A) (A) (A) (A) (A) (A) (A) (A) (A) (A)
                 (A) (A) (A) (A) (A) (A) (A) (A) (A) (A) (A) (A)
                 (A) (A) (A) (A) (A) (A) (A) (A) (A) (A) (A) (A)
                 (A) (A) (A) (A) (A) (A) (A) (A) (A) (A) (A) (A)
                 (A) (A) (A) (A) (A) (A) (A) (A) (A) (A) (A) (A)
                 (A) (A) (A) (A) (A) (A) (A) (A) (A) (A) (A) (A)
 The electronic state of the initial guess is 1-A.
 Requested convergence on RMS density matrix=1.00D-08 within 128 cycles.
 Requested convergence on MAX density matrix=1.00D-06.
 Requested convergence on             energy=1.00D-06.
 No special actions if energy rises.
 Error on total polarization charges =  0.05769
 SCF Done:  E(RB3LYP) =  -610.802918674     A.U. after   12 cycles
             Convg  =    0.4725D-08             -V/T =  2.0090
 SMD-CDS (non-electrostatic) energy       (kcal/mol) =       3.16
 (included in total energy above)

 **********************************************************************

            Population analysis using the SCF density.

 **********************************************************************

 Orbital symmetries:
       Occupied  (A) (A) (A) (A) (A) (A) (A) (A) (A) (A) (A) (A)
                 (A) (A) (A) (A) (A) (A) (A) (A) (A) (A) (A) (A)
                 (A) (A) (A) (A) (A) (A) (A) (A) (A) (A) (A) (A)
                 (A) (A) (A) (A) (A) (A) (A)
       Virtual   (A) (A) (A) (A) (A) (A) (A) (A) (A) (A) (A) (A)
                 (A) (A) (A) (A) (A) (A) (A) (A) (A) (A) (A) (A)
                 (A) (A) (A) (A) (A) (A) (A) (A) (A) (A) (A) (A)
                 (A) (A) (A) (A) (A) (A) (A) (A) (A) (A) (A) (A)
                 (A) (A) (A) (A) (A) (A) (A) (A) (A) (A) (A) (A)
                 (A) (A) (A) (A) (A) (A) (A) (A) (A) (A) (A) (A)
                 (A) (A) (A) (A) (A) (A) (A) (A) (A) (A) (A) (A)
                 (A) (A) (A) (A) (A) (A) (A) (A) (A) (A) (A) (A)
                 (A) (A) (A) (A) (A) (A) (A) (A) (A) (A) (A) (A)
                 (A) (A) (A) (A) (A) (A) (A) (A) (A) (A) (A) (A)
                 (A) (A) (A) (A) (A) (A) (A) (A) (A) (A) (A) (A)
                 (A) (A) (A) (A) (A) (A) (A) (A) (A) (A) (A) (A)
                 (A) (A) (A) (A) (A) (A) (A) (A) (A) (A) (A) (A)
                 (A) (A) (A) (A) (A) (A) (A) (A) (A) (A) (A) (A)
                 (A) (A) (A) (A) (A) (A) (A) (A) (A) (A) (A) (A)
                 (A) (A) (A) (A) (A) (A) (A) (A) (A) (A) (A) (A)
                 (A) (A) (A) (A) (A) (A) (A) (A) (A) (A) (A) (A)
                 (A) (A) (A) (A) (A) (A) (A) (A) (A) (A) (A) (A)
 The electronic state is 1-A.
 Alpha  occ. eigenvalues --  -19.18136 -19.17889 -19.17389 -19.16727 -19.16647
 Alpha  occ. eigenvalues --  -10.28987 -10.25234 -10.24735 -10.24686 -10.24460
 Alpha  occ. eigenvalues --  -10.23758  -1.10939  -1.05962  -1.03798  -1.01813
 Alpha  occ. eigenvalues --   -1.00958  -0.78874  -0.77893  -0.67037  -0.65925
 Alpha  occ. eigenvalues --   -0.62433  -0.58213  -0.55358  -0.54248  -0.51977
 Alpha  occ. eigenvalues --   -0.50759  -0.48511  -0.46287  -0.45673  -0.44443
 Alpha  occ. eigenvalues --   -0.42543  -0.40991  -0.40548  -0.37907  -0.36538
 Alpha  occ. eigenvalues --   -0.36003  -0.34842  -0.34209  -0.33120  -0.31287
 Alpha  occ. eigenvalues --   -0.30344  -0.27000  -0.25854
 Alpha virt. eigenvalues --   -0.00018   0.01696   0.02627   0.03009   0.04378
 Alpha virt. eigenvalues --    0.04638   0.04963   0.05240   0.05901   0.08089
 Alpha virt. eigenvalues --    0.08518   0.09087   0.10612   0.10858   0.11627
 Alpha virt. eigenvalues --    0.12048   0.12799   0.13700   0.14152   0.14402
 Alpha virt. eigenvalues --    0.15262   0.15972   0.16357   0.16571   0.17120
 Alpha virt. eigenvalues --    0.18175   0.18925   0.19568   0.20503   0.20803
 Alpha virt. eigenvalues --    0.21558   0.22042   0.22140   0.22587   0.23338
 Alpha virt. eigenvalues --    0.23873   0.25146   0.25460   0.26287   0.26508
 Alpha virt. eigenvalues --    0.27471   0.28377   0.28643   0.29224   0.29945
 Alpha virt. eigenvalues --    0.30604   0.31314   0.32004   0.33331   0.33856
 Alpha virt. eigenvalues --    0.34413   0.34747   0.35428   0.35947   0.36950
 Alpha virt. eigenvalues --    0.37920   0.38151   0.38750   0.38925   0.40287
 Alpha virt. eigenvalues --    0.40902   0.41654   0.42219   0.44410   0.47821
 Alpha virt. eigenvalues --    0.48480   0.63538   0.66360   0.67746   0.69827
 Alpha virt. eigenvalues --    0.70990   0.73119   0.74919   0.75203   0.76980
 Alpha virt. eigenvalues --    0.78545   0.79872   0.81153   0.84541   0.85641
 Alpha virt. eigenvalues --    0.86690   0.90138   0.92577   0.93868   0.96780
 Alpha virt. eigenvalues --    1.00010   1.01067   1.01945   1.03914   1.05073
 Alpha virt. eigenvalues --    1.06247   1.07561   1.10633   1.11233   1.12415
 Alpha virt. eigenvalues --    1.20143   1.21057   1.21804   1.23439   1.25682
 Alpha virt. eigenvalues --    1.26815   1.27957   1.30625   1.31420   1.31837
 Alpha virt. eigenvalues --    1.33899   1.35900   1.37049   1.39348   1.40631
 Alpha virt. eigenvalues --    1.41983   1.43879   1.46033   1.48751   1.49373
 Alpha virt. eigenvalues --    1.51930   1.53400   1.56513   1.56842   1.58988
 Alpha virt. eigenvalues --    1.62567   1.63407   1.64984   1.67431   1.69468
 Alpha virt. eigenvalues --    1.72053   1.72390   1.74027   1.76203   1.78240
 Alpha virt. eigenvalues --    1.79989   1.81281   1.82271   1.85235   1.87493
 Alpha virt. eigenvalues --    1.88344   1.89192   1.94211   1.96196   1.97263
 Alpha virt. eigenvalues --    1.99691   2.00705   2.02534   2.04979   2.05273
 Alpha virt. eigenvalues --    2.09364   2.12132   2.13114   2.14553   2.15681
 Alpha virt. eigenvalues --    2.18530   2.20899   2.25091   2.28770   2.30586
 Alpha virt. eigenvalues --    2.33247   2.36567   2.38821   2.40495   2.43124
 Alpha virt. eigenvalues --    2.44922   2.46447   2.50045   2.51805   2.53068
 Alpha virt. eigenvalues --    2.55173   2.56744   2.59783   2.61549   2.63334
 Alpha virt. eigenvalues --    2.64207   2.65547   2.66678   2.67857   2.69266
 Alpha virt. eigenvalues --    2.70175   2.72190   2.74420   2.75395   2.79250
 Alpha virt. eigenvalues --    2.83492   2.85837   2.87220   2.89818   2.90117
 Alpha virt. eigenvalues --    2.92206   2.95153   2.96311   2.97167   3.02506
 Alpha virt. eigenvalues --    3.05580   3.08183   3.09999   3.14396   3.20610
 Alpha virt. eigenvalues --    3.32643   3.40689   3.42647   3.45556   3.47657
 Alpha virt. eigenvalues --    3.49360   3.51115   3.56398   3.58972   3.59264
 Alpha virt. eigenvalues --    4.21130   4.32582   4.38413   4.41716   4.48115
 Alpha virt. eigenvalues --    4.53353   4.61238   4.74296   4.88419   4.93812
 Alpha virt. eigenvalues --    5.02350
          Condensed to atoms (all electrons):
              1          2          3          4          5          6
     1  C    5.433261   0.025868  -0.274077   0.105936   0.039123  -0.185676
     2  C    0.025868   6.620424  -0.585078  -0.131913   0.435881  -0.620060
     3  C   -0.274077  -0.585078   6.317894  -0.095002  -0.816774   0.599957
     4  C    0.105936  -0.131913  -0.095002   6.289810  -0.456142  -0.235520
     5  C    0.039123   0.435881  -0.816774  -0.456142   7.460286  -0.979552
     6  C   -0.185676  -0.620060   0.599957  -0.235520  -0.979552   6.995521
     7  O   -0.043560   0.062891   0.205663   0.090919  -0.097473  -0.119641
     8  O    0.169192  -0.158366   0.286773   0.009038  -0.147163   0.050797
     9  O    0.005267  -0.093987  -0.019275  -0.074346   0.030694   0.256612
    10  O    0.015669   0.037641   0.049316   0.208094  -0.169991  -0.184601
    11  O    0.004048  -0.011896  -0.130195  -0.080389   0.270582   0.036063
    12  H    0.445620  -0.112215   0.015404  -0.000648   0.013532   0.003238
    13  H    0.411489  -0.027248  -0.018746  -0.000915  -0.000356   0.006336
    14  H    0.000378   0.331551   0.021675   0.034376  -0.013199  -0.039925
    15  H    0.013772   0.007132   0.393876   0.029705  -0.078597   0.005082
    16  H   -0.003835   0.013381   0.017878   0.355712  -0.012404  -0.037021
    17  H    0.017229   0.002779  -0.091804  -0.021170   0.438177  -0.020134
    18  H    0.044876  -0.147904  -0.004948  -0.046518   0.012696   0.461139
    19  H    0.004787  -0.026356  -0.002246  -0.069642   0.016927   0.051143
    20  H   -0.000302  -0.001785  -0.002637   0.041664  -0.015824  -0.006146
    21  H   -0.000037   0.001973  -0.012014  -0.052750   0.034832   0.003307
              7          8          9         10         11         12
     1  C   -0.043560   0.169192   0.005267   0.015669   0.004048   0.445620
     2  C    0.062891  -0.158366  -0.093987   0.037641  -0.011896  -0.112215
     3  C    0.205663   0.286773  -0.019275   0.049316  -0.130195   0.015404
     4  C    0.090919   0.009038  -0.074346   0.208094  -0.080389  -0.000648
     5  C   -0.097473  -0.147163   0.030694  -0.169991   0.270582   0.013532
     6  C   -0.119641   0.050797   0.256612  -0.184601   0.036063   0.003238
     7  O    8.448956  -0.065811   0.009863  -0.003915   0.012274   0.009543
     8  O   -0.065811   8.443281  -0.000468   0.001127   0.004799  -0.047312
     9  O    0.009863  -0.000468   8.318844  -0.000106  -0.001295   0.000670
    10  O   -0.003915   0.001127  -0.000106   8.496649   0.001827  -0.000052
    11  O    0.012274   0.004799  -0.001295   0.001827   8.301294  -0.000026
    12  H    0.009543  -0.047312   0.000670  -0.000052  -0.000026   0.539268
    13  H   -0.001808  -0.047632  -0.000264   0.000080   0.000058  -0.040676
    14  H   -0.032605   0.008715  -0.001804  -0.001545   0.000067   0.001868
    15  H   -0.049145  -0.040177   0.000004  -0.001390   0.002147  -0.000270
    16  H   -0.001099  -0.001460   0.004740  -0.033506   0.003205  -0.000001
    17  H    0.009152  -0.000639  -0.000189   0.005367  -0.057698  -0.000060
    18  H    0.008488   0.000360  -0.060572   0.006872  -0.000063   0.001714
    19  H    0.000945  -0.000130   0.246345   0.028767  -0.000144  -0.000010
    20  H    0.002200   0.000037  -0.003528   0.244463  -0.003552   0.000000
    21  H    0.001578  -0.000308  -0.000120   0.027054   0.249514   0.000000
             13         14         15         16         17         18
     1  C    0.411489   0.000378   0.013772  -0.003835   0.017229   0.044876
     2  C   -0.027248   0.331551   0.007132   0.013381   0.002779  -0.147904
     3  C   -0.018746   0.021675   0.393876   0.017878  -0.091804  -0.004948
     4  C   -0.000915   0.034376   0.029705   0.355712  -0.021170  -0.046518
     5  C   -0.000356  -0.013199  -0.078597  -0.012404   0.438177   0.012696
     6  C    0.006336  -0.039925   0.005082  -0.037021  -0.020134   0.461139
     7  O   -0.001808  -0.032605  -0.049145  -0.001099   0.009152   0.008488
     8  O   -0.047632   0.008715  -0.040177  -0.001460  -0.000639   0.000360
     9  O   -0.000264  -0.001804   0.000004   0.004740  -0.000189  -0.060572
    10  O    0.000080  -0.001545  -0.001390  -0.033506   0.005367   0.006872
    11  O    0.000058   0.000067   0.002147   0.003205  -0.057698  -0.000063
    12  H   -0.040676   0.001868  -0.000270  -0.000001  -0.000060   0.001714
    13  H    0.558781  -0.003060   0.000576   0.000001  -0.000026   0.000180
    14  H   -0.003060   0.514273  -0.000026  -0.000120   0.000028   0.002330
    15  H    0.000576  -0.000026   0.550035  -0.000143   0.000419   0.000031
    16  H    0.000001  -0.000120  -0.000143   0.541808  -0.006642  -0.006655
    17  H   -0.000026   0.000028   0.000419  -0.006642   0.539159   0.001066
    18  H    0.000180   0.002330   0.000031  -0.006655   0.001066   0.544491
    19  H    0.000004  -0.000230   0.000000  -0.000307  -0.000007   0.006558
    20  H    0.000000   0.000013   0.000013  -0.010912  -0.000054  -0.000111
    21  H    0.000000   0.000001  -0.000534  -0.000028   0.006271  -0.000011
             19         20         21
     1  C    0.004787  -0.000302  -0.000037
     2  C   -0.026356  -0.001785   0.001973
     3  C   -0.002246  -0.002637  -0.012014
     4  C   -0.069642   0.041664  -0.052750
     5  C    0.016927  -0.015824   0.034832
     6  C    0.051143  -0.006146   0.003307
     7  O    0.000945   0.002200   0.001578
     8  O   -0.000130   0.000037  -0.000308
     9  O    0.246345  -0.003528  -0.000120
    10  O    0.028767   0.244463   0.027054
    11  O   -0.000144  -0.003552   0.249514
    12  H   -0.000010   0.000000   0.000000
    13  H    0.000004   0.000000   0.000000
    14  H   -0.000230   0.000013   0.000001
    15  H    0.000000   0.000013  -0.000534
    16  H   -0.000307  -0.010912  -0.000028
    17  H   -0.000007  -0.000054   0.006271
    18  H    0.006558  -0.000111  -0.000011
    19  H    0.339884  -0.001854   0.000014
    20  H   -0.001854   0.312227  -0.001758
    21  H    0.000014  -0.001758   0.335507
 Mulliken atomic charges:
              1
     1  C   -0.229029
     2  C    0.377285
     3  C    0.144362
     4  C    0.099702
     5  C    0.034747
     6  C   -0.040918
     7  O   -0.447412
     8  O   -0.464651
     9  O   -0.617087
    10  O   -0.727821
    11  O   -0.600620
    12  H    0.170413
    13  H    0.163226
    14  H    0.177239
    15  H    0.167487
    16  H    0.177409
    17  H    0.178775
    18  H    0.175984
    19  H    0.405552
    20  H    0.447847
    21  H    0.407509
 Sum of Mulliken atomic charges =   0.00000
 Mulliken charges with hydrogens summed into heavy atoms:
              1
     1  C    0.104610
     2  C    0.554524
     3  C    0.311849
     4  C    0.277111
     5  C    0.213522
     6  C    0.135066
     7  O   -0.447412
     8  O   -0.464651
     9  O   -0.211535
    10  O   -0.279974
    11  O   -0.193111
 Sum of Mulliken charges with hydrogens summed into heavy atoms =   0.00000
 Electronic spatial extent (au):  <R**2>=           1456.6144
 Charge=              0.0000 electrons
 Dipole moment (field-independent basis, Debye):
    X=              1.5787    Y=              2.3240    Z=             -1.5712  Tot=              3.2190
 Quadrupole moment (field-independent basis, Debye-Ang):
   XX=            -54.4239   YY=            -79.2506   ZZ=            -65.5533
   XY=             -0.8910   XZ=             -0.2335   YZ=             -0.7874
 Traceless Quadrupole moment (field-independent basis, Debye-Ang):
   XX=             11.9854   YY=            -12.8414   ZZ=              0.8559
   XY=             -0.8910   XZ=             -0.2335   YZ=             -0.7874
 Octapole moment (field-independent basis, Debye-Ang**2):
  XXX=             41.3057  YYY=             -9.5182  ZZZ=             -8.0733  XYY=            -12.2592
  XXY=             26.4645  XXZ=              6.4554  XZZ=              5.0828  YZZ=              2.7025
  YYZ=             16.1147  XYZ=              2.4146
 Hexadecapole moment (field-independent basis, Debye-Ang**3):
 XXXX=           -679.5742 YYYY=           -913.6141 ZZZZ=           -228.1159 XXXY=              3.3736
 XXXZ=              5.8768 YYYX=             27.5503 YYYZ=             12.1797 ZZZX=              4.7048
 ZZZY=              0.7372 XXYY=           -280.5858 XXZZ=           -173.1505 YYZZ=           -151.5909
 XXYZ=            -13.2107 YYXZ=             15.1185 ZZXY=             -6.2416
 N-N= 7.254069897230D+02 E-N=-2.880746546066D+03  KE= 6.053405012592D+02

 Test job not archived.
 1\1\GINC-COMPUTE-10-0\SP\RB3LYP\6-31+G(d,p)\C6H10O5\ASAROTTI.IQUIR\15-
 Apr-2019\0\\# B3LYP/6-31+G** test scrf=(pcm,solvent=water,smd,dovacuum
 )\\comment\\0,1\C,0,-2.282615,0.338331,-0.257928\C,0,-1.066531,0.93067
 4,0.456768\C,0,-0.720092,-1.252329,0.330518\C,0,1.150013,0.195922,-0.5
 98914\C,0,0.551025,-1.236963,-0.551242\C,0,0.083877,1.319372,-0.516011
 \O,0,-0.683485,-0.197296,1.273503\O,0,-1.877158,-1.02193,-0.482077\O,0
 ,0.705743,2.539315,-0.143787\O,0,2.024049,0.34804,0.543115\O,0,1.52502
 3,-2.152514,-0.079742\H,0,-2.510677,0.810362,-1.217621\H,0,-3.172533,0
 .366882,0.38237\H,0,-1.299406,1.767618,1.116553\H,0,-0.814302,-2.20283
 4,0.863107\H,0,1.736167,0.322821,-1.512495\H,0,0.266092,-1.556904,-1.5
 58076\H,0,-0.332982,1.483842,-1.51527\H,0,1.345392,2.287107,0.548736\H
 ,0,2.925317,0.4878,0.214123\H,0,2.009481,-1.66166,0.611332\\Version=EM
 64L-G09RevC.01\State=1-A\HF=-610.8029187\RMSD=4.725e-09\Dipole=0.62110
 78,0.9143351,-0.6181529\Quadrupole=8.9108608,-9.5472306,0.6363698,-0.6
 624046,-0.1735865,-0.5854266\PG=C01 [X(C6H10O5)]\\@


 THE HURRIEDER I GO, THE BEHINDER I GET.
 Job cpu time:  0 days  0 hours 13 minutes 19.3 seconds.
 File lengths (MBytes):  RWF=     56 Int=      0 D2E=      0 Chk=      4 Scr=      1
 Normal termination of Gaussian 09 at Mon Apr 15 18:32:47 2019.
