 Entering Gaussian System, Link 0=g09
 Input=/home/mmarcarino.iquir/NMR/04_RRR_Levo09_OPTB_nmr.gjc
 Output=/home/mmarcarino.iquir/NMR/04_RRR_Levo09_OPTB_nmr.log
 Initial command:
 /share/apps/Gaussian09/EM64T.SSE4.2-enabled/g09/l1.exe /tmp/Gau-32903.inp -scrdir=/tmp/
 Entering Link 1 = /share/apps/Gaussian09/EM64T.SSE4.2-enabled/g09/l1.exe PID=     32904.
  
 Copyright (c) 1988,1990,1992,1993,1995,1998,2003,2009,2011,
            Gaussian, Inc.  All Rights Reserved.
  
 This is part of the Gaussian(R) 09 program.  It is based on
 the Gaussian(R) 03 system (copyright 2003, Gaussian, Inc.),
 the Gaussian(R) 98 system (copyright 1998, Gaussian, Inc.),
 the Gaussian(R) 94 system (copyright 1995, Gaussian, Inc.),
 the Gaussian 92(TM) system (copyright 1992, Gaussian, Inc.),
 the Gaussian 90(TM) system (copyright 1990, Gaussian, Inc.),
 the Gaussian 88(TM) system (copyright 1988, Gaussian, Inc.),
 the Gaussian 86(TM) system (copyright 1986, Carnegie Mellon
 University), and the Gaussian 82(TM) system (copyright 1983,
 Carnegie Mellon University). Gaussian is a federally registered
 trademark of Gaussian, Inc.
  
 This software contains proprietary and confidential information,
 including trade secrets, belonging to Gaussian, Inc.
  
 This software is provided under written license and may be
 used, copied, transmitted, or stored only in accord with that
 written license.
  
 The following legend is applicable only to US Government
 contracts under FAR:
  
                    RESTRICTED RIGHTS LEGEND
  
 Use, reproduction and disclosure by the US Government is
 subject to restrictions as set forth in subparagraphs (a)
 and (c) of the Commercial Computer Software - Restricted
 Rights clause in FAR 52.227-19.
  
 Gaussian, Inc.
 340 Quinnipiac St., Bldg. 40, Wallingford CT 06492
  
  
 ---------------------------------------------------------------
 Warning -- This program may not be used in any manner that
 competes with the business of Gaussian, Inc. or will provide
 assistance to any competitor of Gaussian, Inc.  The licensee
 of this program is prohibited from giving any competitor of
 Gaussian, Inc. access to this program.  By using this program,
 the user acknowledges that Gaussian, Inc. is engaged in the
 business of creating and licensing software in the field of
 computational chemistry and represents and warrants to the
 licensee that it is not a competitor of Gaussian, Inc. and that
 it will not use this program in any manner prohibited above.
 ---------------------------------------------------------------
  

 Cite this work as:
 Gaussian 09, Revision C.01,
 M. J. Frisch, G. W. Trucks, H. B. Schlegel, G. E. Scuseria, 
 M. A. Robb, J. R. Cheeseman, G. Scalmani, V. Barone, B. Mennucci, 
 G. A. Petersson, H. Nakatsuji, M. Caricato, X. Li, H. P. Hratchian, 
 A. F. Izmaylov, J. Bloino, G. Zheng, J. L. Sonnenberg, M. Hada, 
 M. Ehara, K. Toyota, R. Fukuda, J. Hasegawa, M. Ishida, T. Nakajima, 
 Y. Honda, O. Kitao, H. Nakai, T. Vreven, J. A. Montgomery, Jr., 
 J. E. Peralta, F. Ogliaro, M. Bearpark, J. J. Heyd, E. Brothers, 
 K. N. Kudin, V. N. Staroverov, T. Keith, R. Kobayashi, J. Normand, 
 K. Raghavachari, A. Rendell, J. C. Burant, S. S. Iyengar, J. Tomasi, 
 M. Cossi, N. Rega, J. M. Millam, M. Klene, J. E. Knox, J. B. Cross, 
 V. Bakken, C. Adamo, J. Jaramillo, R. Gomperts, R. E. Stratmann, 
 O. Yazyev, A. J. Austin, R. Cammi, C. Pomelli, J. W. Ochterski, 
 R. L. Martin, K. Morokuma, V. G. Zakrzewski, G. A. Voth, 
 P. Salvador, J. J. Dannenberg, S. Dapprich, A. D. Daniels, 
 O. Farkas, J. B. Foresman, J. V. Ortiz, J. Cioslowski, 
 and D. J. Fox, Gaussian, Inc., Wallingford CT, 2010.
 
 ******************************************
 Gaussian 09:  EM64L-G09RevC.01 23-Sep-2011
                12-Apr-2019 
 ******************************************
 %nprocshared=4
 Will use up to    4 processors via shared memory.
 ------------------------------------------------
 # mpw1pw91/6-31+g** nmr scrf=(pcm,solvent=water)
 ------------------------------------------------
 1/38=1/1;
 2/12=2,17=6,18=5,40=1/2;
 3/5=1,6=6,7=111,11=2,16=1,25=1,30=1,70=2201,72=1,74=-7/1,2,8,3;
 4//1;
 5/5=2,38=5,53=1/2;
 8/6=1,10=90,11=11/1;
 10/13=100,45=16/2;
 6/7=2,8=2,9=2,10=2,28=1/1;
 99/9=1/99;
 -------
 comment
 -------
 Charge =  0 Multiplicity = 1
 Symbolic Z-Matrix:
 6                    -2.29126   0.14379  -0.27144 
 6                    -1.13872   0.84664   0.44965 
 6                    -0.59854  -1.29366   0.33696 
 6                     1.13963   0.31447  -0.60845 
 6                     0.65737  -1.15791  -0.55718 
 6                    -0.02304   1.33922  -0.51448 
 8                    -0.66118  -0.24073   1.27415 
 8                    -1.76891  -1.18104  -0.47681 
 8                     0.49774   2.59965  -0.11694 
 8                     2.01306   0.59303   0.48579 
 8                     1.76356  -1.89804  -0.03945 
 1                    -2.54702   0.5845   -1.23878 
 1                    -3.18774   0.09931   0.35795 
 1                    -1.45349   1.65888   1.10619 
 1                    -0.612    -2.2459    0.87788 
 1                     1.68777   0.48261  -1.54444 
 1                     0.39873  -1.50219  -1.56562 
 1                    -0.45365   1.49089  -1.50989 
 1                     1.15525   2.38918   0.57263 
 1                     2.2878   -0.27117   0.84335 
 1                     1.49755  -2.82447   0.07645 
 
                          Input orientation:                          
 ---------------------------------------------------------------------
 Center     Atomic      Atomic             Coordinates (Angstroms)
 Number     Number       Type             X           Y           Z
 ---------------------------------------------------------------------
      1          6           0       -2.291256    0.143792   -0.271439
      2          6           0       -1.138725    0.846641    0.449650
      3          6           0       -0.598539   -1.293663    0.336959
      4          6           0        1.139627    0.314473   -0.608446
      5          6           0        0.657368   -1.157911   -0.557182
      6          6           0       -0.023041    1.339223   -0.514476
      7          8           0       -0.661180   -0.240733    1.274148
      8          8           0       -1.768910   -1.181035   -0.476808
      9          8           0        0.497744    2.599654   -0.116943
     10          8           0        2.013060    0.593033    0.485786
     11          8           0        1.763562   -1.898041   -0.039445
     12          1           0       -2.547019    0.584499   -1.238775
     13          1           0       -3.187738    0.099311    0.357951
     14          1           0       -1.453491    1.658878    1.106187
     15          1           0       -0.611997   -2.245900    0.877877
     16          1           0        1.687768    0.482611   -1.544442
     17          1           0        0.398726   -1.502192   -1.565616
     18          1           0       -0.453647    1.490891   -1.509888
     19          1           0        1.155249    2.389182    0.572626
     20          1           0        2.287795   -0.271169    0.843345
     21          1           0        1.497551   -2.824465    0.076451
 ---------------------------------------------------------------------
                    Distance matrix (angstroms):
                    1          2          3          4          5
     1  C    0.000000
     2  C    1.530455   0.000000
     3  C    2.302546   2.210294   0.000000
     4  C    3.451618   2.567812   2.549728   0.000000
     5  C    3.235810   2.873654   1.547650   1.550199   0.000000
     6  C    2.575446   1.554647   2.826345   1.552656   2.588524
     7  O    2.279001   1.445762   1.410996   2.663704   2.435889
     8  O    1.438815   2.316663   1.429920   3.273142   2.427719
     9  O    3.719361   2.464166   4.070108   2.423972   3.786632
    10  O    4.393443   3.162178   3.225247   1.427524   2.447752
    11  O    4.545817   4.024396   2.467078   2.368180   1.428114
    12  H    1.093333   2.214224   3.131614   3.749878   3.710614
    13  H    1.096262   2.182972   2.940199   4.439178   4.147640
    14  H    2.212507   1.090801   3.168620   3.386983   3.893176
    15  H    3.138704   3.166170   1.095230   3.439891   2.203271
    16  H    4.191416   3.478216   3.452828   1.097642   2.174332
    17  H    3.408836   3.455730   2.158197   2.182975   1.096524
    18  H    2.593306   2.173518   3.344485   2.176024   3.026244
    19  H    4.199121   2.767105   4.085910   2.387382   3.755825
    20  H    4.731030   3.625677   3.103682   1.941382   2.325098
    21  H    4.825623   4.535003   2.608604   3.232665   1.970990
                    6          7          8          9         10
     6  C    0.000000
     7  O    2.470356   0.000000
     8  O    3.066134   2.275320   0.000000
     9  O    1.420541   3.368388   4.422763   0.000000
    10  O    2.388102   2.910024   4.286864   2.585729   0.000000
    11  O    3.727933   3.217386   3.630942   4.673068   2.558040
    12  H    2.732157   3.248412   2.074405   3.819678   4.875295
    13  H    3.509105   2.708974   2.085469   4.478841   5.225744
    14  H    2.185158   2.065064   3.266568   2.487654   3.679388
    15  H    3.890838   2.044540   2.075465   5.069574   3.886412
    16  H    2.172897   3.739684   3.981982   2.817052   2.059086
    17  H    3.058827   3.283129   2.446894   4.351276   3.347281
    18  H    1.095112   3.285186   3.152199   2.018612   3.297500
    19  H    1.916396   3.272308   4.732702   0.975765   1.992368
    20  H    3.126820   2.980431   4.362054   3.516825   0.974768
    21  H    4.471878   3.573551   3.698206   5.518884   3.480316
                   11         12         13         14         15
    11  O    0.000000
    12  H    5.116884   0.000000
    13  H    5.353757   1.787586   0.000000
    14  H    4.930880   2.801596   2.449432   0.000000
    15  H    2.570168   4.029353   3.522042   4.000941   0.000000
    16  H    2.817493   4.247027   5.247531   4.275155   4.312925
    17  H    2.085347   3.624709   4.373516   4.534490   2.746875
    18  H    4.308489   2.297228   3.591736   2.805665   4.437353
    19  H    4.373209   4.499427   4.914380   2.761079   4.969942
    20  H    1.923760   5.333181   5.509476   4.217984   3.508497
    21  H    0.970801   5.450633   5.529886   5.465288   2.329638
                   16         17         18         19         20
    16  H    0.000000
    17  H    2.366753   0.000000
    18  H    2.367167   3.112586   0.000000
    19  H    2.898373   4.504131   2.780708   0.000000
    20  H    2.574829   3.299559   4.019710   2.904035   0.000000
    21  H    3.687849   2.377437   4.994591   5.248378   2.780635
                   21
    21  H    0.000000
 Stoichiometry    C6H10O5
 Framework group  C1[X(C6H10O5)]
 Deg. of freedom    57
 Full point group                 C1      NOp   1
 Largest Abelian subgroup         C1      NOp   1
 Largest concise Abelian subgroup C1      NOp   1
                         Standard orientation:                         
 ---------------------------------------------------------------------
 Center     Atomic      Atomic             Coordinates (Angstroms)
 Number     Number       Type             X           Y           Z
 ---------------------------------------------------------------------
      1          6           0       -2.291256    0.143790   -0.271439
      2          6           0       -1.138726    0.846640    0.449650
      3          6           0       -0.598538   -1.293663    0.336959
      4          6           0        1.139627    0.314474   -0.608446
      5          6           0        0.657369   -1.157910   -0.557182
      6          6           0       -0.023042    1.339223   -0.514476
      7          8           0       -0.661180   -0.240734    1.274148
      8          8           0       -1.768909   -1.181036   -0.476808
      9          8           0        0.497742    2.599654   -0.116943
     10          8           0        2.013059    0.593035    0.485786
     11          8           0        1.763563   -1.898040   -0.039445
     12          1           0       -2.547020    0.584497   -1.238775
     13          1           0       -3.187738    0.099308    0.357951
     14          1           0       -1.453492    1.658877    1.106187
     15          1           0       -0.611995   -2.245901    0.877877
     16          1           0        1.687767    0.482612   -1.544442
     17          1           0        0.398727   -1.502192   -1.565616
     18          1           0       -0.453648    1.490891   -1.509888
     19          1           0        1.155247    2.389183    0.572626
     20          1           0        2.287795   -0.271167    0.843345
     21          1           0        1.497553   -2.824464    0.076451
 ---------------------------------------------------------------------
 Rotational constants (GHZ):      1.4463875      1.3535308      0.8426641
 Standard basis: 6-31+G(d,p) (6D, 7F)
 There are   259 symmetry adapted basis functions of A   symmetry.
 Integral buffers will be    131072 words long.
 Raffenetti 2 integral format.
 Two-electron integral symmetry is turned on.
   259 basis functions,   422 primitive gaussians,   259 cartesian basis functions
    43 alpha electrons       43 beta electrons
       nuclear repulsion energy       726.4907464342 Hartrees.
 NAtoms=   21 NActive=   21 NUniq=   21 SFac= 1.00D+00 NAtFMM=   60 NAOKFM=F Big=F
 ------------------------------------------------------------------------------
 Polarizable Continuum Model (PCM)
 =================================
 Model                : PCM.
 Atomic radii         : UFF (Universal Force Field).
 Polarization charges : Total charges.
 Charge compensation  : None.
 Solution method      : Matrix inversion.
 Cavity type          : Scaled VdW (van der Waals Surface) (Alpha=1.100).
 Cavity algorithm     : GePol (No added spheres)
                        Default sphere list used, NSphG=   21.
                        Lebedev-Laikov grids with approx.  5.0 points / Ang**2.
                        Smoothing algorithm: Karplus/York (Gamma=1.0000).
                        Polarization charges: spherical gaussians, with
                                              point-specific exponents (IZeta= 3).
                        Self-potential: point-specific (ISelfS= 7).
                        Self-field    : sphere-specific E.n sum rule (ISelfD= 2).
 Solvent              : Water, Eps=  78.355300 Eps(inf)=   1.777849
 ------------------------------------------------------------------------------
 One-electron integrals computed using PRISM.
 NBasis=   259 RedAO= T  NBF=   259
 NBsUse=   259 1.00D-06 NBFU=   259
 Harris functional with IExCor=  908 diagonalized for initial guess.
 ExpMin= 4.38D-02 ExpMax= 5.48D+03 ExpMxC= 8.25D+02 IAcc=2 IRadAn=         4 AccDes= 0.00D+00
 HarFok:  IExCor=  908 AccDes= 0.00D+00 IRadAn=         4 IDoV= 1
 ScaDFX=  1.000000  1.000000  1.000000  1.000000
 FoFCou: FMM=F IPFlag=           0 FMFlag=      100000 FMFlg1=           0
         NFxFlg=           0 DoJE=T BraDBF=F KetDBF=T FulRan=T
         Omega=  0.000000  0.000000  1.000000  0.000000  0.000000 ICntrl=     500 IOpCl=  0
         NMat0=    1 NMatS0=    1 NMatT0=    0 NMatD0=    1 NMtDS0=    0 NMtDT0=    0
         I1Cent=           4 NGrid=           0.
 Petite list used in FoFCou.
 Initial guess orbital symmetries:
       Occupied  (A) (A) (A) (A) (A) (A) (A) (A) (A) (A) (A) (A)
                 (A) (A) (A) (A) (A) (A) (A) (A) (A) (A) (A) (A)
                 (A) (A) (A) (A) (A) (A) (A) (A) (A) (A) (A) (A)
                 (A) (A) (A) (A) (A) (A) (A)
       Virtual   (A) (A) (A) (A) (A) (A) (A) (A) (A) (A) (A) (A)
                 (A) (A) (A) (A) (A) (A) (A) (A) (A) (A) (A) (A)
                 (A) (A) (A) (A) (A) (A) (A) (A) (A) (A) (A) (A)
                 (A) (A) (A) (A) (A) (A) (A) (A) (A) (A) (A) (A)
                 (A) (A) (A) (A) (A) (A) (A) (A) (A) (A) (A) (A)
                 (A) (A) (A) (A) (A) (A) (A) (A) (A) (A) (A) (A)
                 (A) (A) (A) (A) (A) (A) (A) (A) (A) (A) (A) (A)
                 (A) (A) (A) (A) (A) (A) (A) (A) (A) (A) (A) (A)
                 (A) (A) (A) (A) (A) (A) (A) (A) (A) (A) (A) (A)
                 (A) (A) (A) (A) (A) (A) (A) (A) (A) (A) (A) (A)
                 (A) (A) (A) (A) (A) (A) (A) (A) (A) (A) (A) (A)
                 (A) (A) (A) (A) (A) (A) (A) (A) (A) (A) (A) (A)
                 (A) (A) (A) (A) (A) (A) (A) (A) (A) (A) (A) (A)
                 (A) (A) (A) (A) (A) (A) (A) (A) (A) (A) (A) (A)
                 (A) (A) (A) (A) (A) (A) (A) (A) (A) (A) (A) (A)
                 (A) (A) (A) (A) (A) (A) (A) (A) (A) (A) (A) (A)
                 (A) (A) (A) (A) (A) (A) (A) (A) (A) (A) (A) (A)
                 (A) (A) (A) (A) (A) (A) (A) (A) (A) (A) (A) (A)
 The electronic state of the initial guess is 1-A.
 Requested convergence on RMS density matrix=1.00D-08 within 128 cycles.
 Requested convergence on MAX density matrix=1.00D-06.
 Requested convergence on             energy=1.00D-06.
 No special actions if energy rises.
 Error on total polarization charges =  0.01172
 SCF Done:  E(RmPW1PW91) =  -610.642414960     A.U. after   12 cycles
             Convg  =    0.4745D-08             -V/T =  2.0090
 Range of M.O.s used for correlation:     1   259
 NBasis=   259 NAE=    43 NBE=    43 NFC=     0 NFV=     0
 NROrb=    259 NOA=    43 NOB=    43 NVA=   216 NVB=   216

 **** Warning!!: The largest alpha MO coefficient is  0.53543190D+02

 NEqPCM:  Using equilibrium solvation (IEInf=0, Eps=  78.3553, EpsInf=   1.7778)
          Differentiating once with respect to magnetic field using GIAOs.
          Electric field/nuclear overlap derivatives assumed to be zero.
 FoFCou: FMM=F IPFlag=           0 FMFlag=    10101102 FMFlg1=           0
         NFxFlg=    40000000 DoJE=F BraDBF=F KetDBF=T FulRan=T
         Omega=  0.000000  0.000000  1.000000  0.000000  0.000000 ICntrl=    6100 IOpCl=  0
         NMat0=    1 NMatS0=    1 NMatT0=    0 NMatD0=    1 NMtDS0=    0 NMtDT0=    0
         I1Cent=           7 NGrid=        1529.
 Symmetry not used in FoFCou.
          There are     3 degrees of freedom in the 1st order CPHF.  IDoFFX=0.
      3 vectors produced by pass  0 Test12= 3.10D-13 3.33D-08 XBig12= 2.21D+01 8.97D-01.
 AX will form     3 AO Fock derivatives at one time.
      3 vectors produced by pass  1 Test12= 3.10D-13 3.33D-08 XBig12= 5.41D-02 3.53D-02.
      3 vectors produced by pass  2 Test12= 3.10D-13 3.33D-08 XBig12= 1.24D-04 1.79D-03.
      3 vectors produced by pass  3 Test12= 3.10D-13 3.33D-08 XBig12= 5.67D-07 1.32D-04.
      3 vectors produced by pass  4 Test12= 3.10D-13 3.33D-08 XBig12= 1.89D-09 6.74D-06.
      3 vectors produced by pass  5 Test12= 3.10D-13 3.33D-08 XBig12= 6.59D-12 3.81D-07.
 Inverted reduced A of dimension    18 with in-core refinement.
 Calculating GIAO nuclear magnetic shielding tensors.
 SCF GIAO Magnetic shielding tensor (ppm):
      1  C    Isotropic =   127.2054   Anisotropy =    46.0628
   XX=   118.4680   YX=   -16.4030   ZX=     7.0530
   XY=    -2.3625   YY=   154.7698   ZY=    11.7909
   XZ=     2.8110   YZ=     3.9164   ZZ=   108.3784
   Eigenvalues:   103.9722   119.7301   157.9139
      2  C    Isotropic =   113.8285   Anisotropy =    36.9836
   XX=   107.6005   YX=     1.5826   ZX=     7.6589
   XY=    -6.5408   YY=   128.8447   ZY=   -16.9831
   XZ=     1.8795   YZ=   -17.3954   ZZ=   105.0404
   Eigenvalues:    95.2410   107.7603   138.4843
      3  C    Isotropic =    91.3267   Anisotropy =    29.2995
   XX=   104.6772   YX=    -7.6693   ZX=    16.1888
   XY=    -5.7047   YY=    84.0502   ZY=     5.8335
   XZ=     8.6265   YZ=    13.5716   ZZ=    85.2526
   Eigenvalues:    69.6989    93.4215   110.8597
      4  C    Isotropic =   129.5955   Anisotropy =    46.5880
   XX=   133.5530   YX=     1.8164   ZX=    29.0178
   XY=     3.2919   YY=   114.8103   ZY=     8.7290
   XZ=    16.2327   YZ=     2.6550   ZZ=   140.4231
   Eigenvalues:   112.3071   115.8252   160.6541
      5  C    Isotropic =   123.3991   Anisotropy =    42.1939
   XX=   145.6219   YX=   -22.0789   ZX=     5.3402
   XY=    -5.2059   YY=   107.7699   ZY=     2.8862
   XZ=     8.2908   YZ=    -7.6762   ZZ=   116.8054
   Eigenvalues:   103.3627   115.3062   151.5283
      6  C    Isotropic =   123.8210   Anisotropy =    41.5543
   XX=   127.8382   YX=    28.6639   ZX=     3.5194
   XY=    14.9240   YY=   129.5756   ZY=     3.9277
   XZ=     0.5148   YZ=     9.1757   ZZ=   114.0492
   Eigenvalues:   105.6392   114.2999   151.5239
      7  O    Isotropic =   247.6048   Anisotropy =    60.8892
   XX=   256.0307   YX=   -21.3607   ZX=    29.3784
   XY=   -11.8741   YY=   245.0541   ZY=    30.8071
   XZ=    46.6467   YZ=    23.0938   ZZ=   241.7294
   Eigenvalues:   191.7050   262.9117   288.1976
      8  O    Isotropic =   260.1838   Anisotropy =   123.2909
   XX=   280.7009   YX=   -14.6995   ZX=    62.1590
   XY=   -12.3313   YY=   244.1731   ZY=    47.1407
   XZ=    60.2342   YZ=    79.1670   ZZ=   255.6774
   Eigenvalues:   162.5358   275.6379   342.3778
      9  O    Isotropic =   296.7054   Anisotropy =    40.7080
   XX=   305.6945   YX=    21.6525   ZX=    -8.0282
   XY=    16.3495   YY=   298.1490   ZY=     4.4536
   XZ=    -9.7448   YZ=   -13.6147   ZZ=   286.2726
   Eigenvalues:   281.0206   285.2515   323.8440
     10  O    Isotropic =   321.8299   Anisotropy =    51.2579
   XX=   295.1093   YX=    -2.6079   ZX=   -26.7171
   XY=   -17.0925   YY=   334.6165   ZY=   -22.3006
   XZ=     9.2352   YZ=   -19.2940   ZZ=   335.7639
   Eigenvalues:   288.4347   321.0531   356.0018
     11  O    Isotropic =   296.8174   Anisotropy =    54.6668
   XX=   301.7171   YX=    19.5143   ZX=   -13.3814
   XY=    -2.8124   YY=   327.6743   ZY=   -23.1528
   XZ=   -10.8064   YZ=    -0.6538   ZZ=   261.0609
   Eigenvalues:   256.4846   300.7057   333.2620
     12  H    Isotropic =    27.7970   Anisotropy =     7.7745
   XX=    28.1836   YX=    -1.9975   ZX=     2.7489
   XY=    -2.3539   YY=    27.6148   ZY=    -3.0173
   XZ=     3.4704   YZ=    -1.8455   ZZ=    27.5926
   Eigenvalues:    24.6765    25.7345    32.9800
     13  H    Isotropic =    27.9106   Anisotropy =    10.9340
   XX=    33.5302   YX=    -1.9011   ZX=    -2.7511
   XY=    -1.9300   YY=    26.1702   ZY=     1.6416
   XZ=    -4.1071   YZ=     1.1090   ZZ=    24.0313
   Eigenvalues:    22.7500    25.7818    35.1999
     14  H    Isotropic =    27.1207   Anisotropy =     6.3396
   XX=    26.4286   YX=    -2.6958   ZX=    -2.3681
   XY=    -0.7254   YY=    29.5246   ZY=     1.8727
   XZ=    -1.5872   YZ=     1.7770   ZZ=    25.4088
   Eigenvalues:    23.8393    26.1756    31.3471
     15  H    Isotropic =    26.4514   Anisotropy =     6.4560
   XX=    25.5084   YX=     0.1994   ZX=     0.1003
   XY=    -0.0958   YY=    29.7921   ZY=    -2.1775
   XZ=     0.3546   YZ=    -2.9034   ZZ=    24.0536
   Eigenvalues:    23.0687    25.5301    30.7553
     16  H    Isotropic =    27.3105   Anisotropy =     9.5749
   XX=    25.4037   YX=     0.5634   ZX=    -1.2183
   XY=     0.5015   YY=    23.4610   ZY=    -0.1542
   XZ=    -3.1307   YZ=    -1.0855   ZZ=    33.0669
   Eigenvalues:    23.3242    24.9136    33.6938
     17  H    Isotropic =    27.8767   Anisotropy =     5.6711
   XX=    27.6789   YX=    -1.1423   ZX=     1.2378
   XY=    -2.0157   YY=    26.1233   ZY=     2.3922
   XZ=     1.0824   YZ=     3.9390   ZZ=    29.8280
   Eigenvalues:    23.4173    28.5555    31.6574
     18  H    Isotropic =    28.0901   Anisotropy =     5.7755
   XX=    26.6537   YX=     1.0871   ZX=     2.3849
   XY=     2.7498   YY=    27.4137   ZY=    -1.4329
   XZ=     2.8567   YZ=    -3.0608   ZZ=    30.2029
   Eigenvalues:    23.3416    28.9882    31.9404
     19  H    Isotropic =    27.6822   Anisotropy =    14.8934
   XX=    28.5610   YX=    -2.3655   ZX=     9.8992
   XY=    -1.6216   YY=    28.1089   ZY=     0.2945
   XZ=     9.9768   YZ=     0.6707   ZZ=    26.3768
   Eigenvalues:    17.2075    28.2281    37.6111
     20  H    Isotropic =    27.9169   Anisotropy =    18.6091
   XX=    23.4677   YX=    -2.7153   ZX=     6.9106
   XY=    -3.4649   YY=    37.9279   ZY=    -2.9859
   XZ=     7.0207   YZ=    -4.9656   ZZ=    22.3550
   Eigenvalues:    15.8900    27.5376    40.3230
     21  H    Isotropic =    29.4565   Anisotropy =    19.3387
   XX=    25.7735   YX=     1.0577   ZX=     1.0865
   XY=     0.8148   YY=    41.9018   ZY=    -2.7148
   XZ=     0.1682   YZ=    -3.1965   ZZ=    20.6941
   Eigenvalues:    20.1890    25.8314    42.3489
 End of Minotr Frequency-dependent properties file   721 does not exist.
 End of Minotr Frequency-dependent properties file   722 does not exist.

 **********************************************************************

            Population analysis using the SCF density.

 **********************************************************************

 Orbital symmetries:
       Occupied  (A) (A) (A) (A) (A) (A) (A) (A) (A) (A) (A) (A)
                 (A) (A) (A) (A) (A) (A) (A) (A) (A) (A) (A) (A)
                 (A) (A) (A) (A) (A) (A) (A) (A) (A) (A) (A) (A)
                 (A) (A) (A) (A) (A) (A) (A)
       Virtual   (A) (A) (A) (A) (A) (A) (A) (A) (A) (A) (A) (A)
                 (A) (A) (A) (A) (A) (A) (A) (A) (A) (A) (A) (A)
                 (A) (A) (A) (A) (A) (A) (A) (A) (A) (A) (A) (A)
                 (A) (A) (A) (A) (A) (A) (A) (A) (A) (A) (A) (A)
                 (A) (A) (A) (A) (A) (A) (A) (A) (A) (A) (A) (A)
                 (A) (A) (A) (A) (A) (A) (A) (A) (A) (A) (A) (A)
                 (A) (A) (A) (A) (A) (A) (A) (A) (A) (A) (A) (A)
                 (A) (A) (A) (A) (A) (A) (A) (A) (A) (A) (A) (A)
                 (A) (A) (A) (A) (A) (A) (A) (A) (A) (A) (A) (A)
                 (A) (A) (A) (A) (A) (A) (A) (A) (A) (A) (A) (A)
                 (A) (A) (A) (A) (A) (A) (A) (A) (A) (A) (A) (A)
                 (A) (A) (A) (A) (A) (A) (A) (A) (A) (A) (A) (A)
                 (A) (A) (A) (A) (A) (A) (A) (A) (A) (A) (A) (A)
                 (A) (A) (A) (A) (A) (A) (A) (A) (A) (A) (A) (A)
                 (A) (A) (A) (A) (A) (A) (A) (A) (A) (A) (A) (A)
                 (A) (A) (A) (A) (A) (A) (A) (A) (A) (A) (A) (A)
                 (A) (A) (A) (A) (A) (A) (A) (A) (A) (A) (A) (A)
                 (A) (A) (A) (A) (A) (A) (A) (A) (A) (A) (A) (A)
 The electronic state is 1-A.
 Alpha  occ. eigenvalues --  -19.27846 -19.27669 -19.26984 -19.25986 -19.25709
 Alpha  occ. eigenvalues --  -10.36105 -10.32008 -10.31813 -10.31501 -10.31462
 Alpha  occ. eigenvalues --  -10.30593  -1.14414  -1.09393  -1.07371  -1.04676
 Alpha  occ. eigenvalues --   -1.04046  -0.81992  -0.80970  -0.70214  -0.68611
 Alpha  occ. eigenvalues --   -0.65187  -0.61249  -0.57414  -0.55981  -0.55138
 Alpha  occ. eigenvalues --   -0.51900  -0.50280  -0.49398  -0.47917  -0.46754
 Alpha  occ. eigenvalues --   -0.43958  -0.43118  -0.42308  -0.40223  -0.38618
 Alpha  occ. eigenvalues --   -0.37778  -0.36708  -0.36130  -0.33865  -0.32431
 Alpha  occ. eigenvalues --   -0.31953  -0.28692  -0.27026
 Alpha virt. eigenvalues --    0.00342   0.01621   0.02160   0.02443   0.04006
 Alpha virt. eigenvalues --    0.04475   0.04981   0.05272   0.05722   0.08368
 Alpha virt. eigenvalues --    0.08450   0.08933   0.09918   0.10600   0.11388
 Alpha virt. eigenvalues --    0.11933   0.12622   0.13460   0.13894   0.14252
 Alpha virt. eigenvalues --    0.14960   0.16220   0.16312   0.16828   0.17037
 Alpha virt. eigenvalues --    0.17958   0.18782   0.19649   0.20344   0.20535
 Alpha virt. eigenvalues --    0.21369   0.21557   0.22450   0.23722   0.24457
 Alpha virt. eigenvalues --    0.24667   0.25393   0.25818   0.26306   0.27523
 Alpha virt. eigenvalues --    0.28258   0.28832   0.29447   0.29629   0.30580
 Alpha virt. eigenvalues --    0.31447   0.32388   0.32896   0.34052   0.34292
 Alpha virt. eigenvalues --    0.34660   0.35477   0.36036   0.37087   0.37287
 Alpha virt. eigenvalues --    0.37811   0.38962   0.39514   0.40357   0.40739
 Alpha virt. eigenvalues --    0.41687   0.42197   0.43297   0.44547   0.45769
 Alpha virt. eigenvalues --    0.50008   0.64379   0.67723   0.68124   0.69884
 Alpha virt. eigenvalues --    0.71477   0.73758   0.75554   0.76139   0.77240
 Alpha virt. eigenvalues --    0.78943   0.80434   0.81110   0.85045   0.86169
 Alpha virt. eigenvalues --    0.87472   0.91149   0.93279   0.94792   0.96974
 Alpha virt. eigenvalues --    1.01199   1.01909   1.02754   1.05379   1.06247
 Alpha virt. eigenvalues --    1.07107   1.09959   1.11543   1.12198   1.13869
 Alpha virt. eigenvalues --    1.16872   1.22010   1.23901   1.25677   1.26686
 Alpha virt. eigenvalues --    1.27854   1.29798   1.30481   1.32550   1.33838
 Alpha virt. eigenvalues --    1.34819   1.36915   1.39431   1.39901   1.41889
 Alpha virt. eigenvalues --    1.43185   1.44907   1.46352   1.47757   1.51079
 Alpha virt. eigenvalues --    1.52152   1.55200   1.56702   1.58246   1.59721
 Alpha virt. eigenvalues --    1.62149   1.63506   1.65878   1.68034   1.68958
 Alpha virt. eigenvalues --    1.70857   1.72132   1.76001   1.77474   1.79422
 Alpha virt. eigenvalues --    1.81156   1.82953   1.83622   1.88116   1.88708
 Alpha virt. eigenvalues --    1.90543   1.92673   1.93756   1.95653   1.97822
 Alpha virt. eigenvalues --    1.99320   2.01566   2.02655   2.06708   2.07584
 Alpha virt. eigenvalues --    2.10893   2.12234   2.13259   2.14555   2.16646
 Alpha virt. eigenvalues --    2.18752   2.21660   2.25631   2.26824   2.33456
 Alpha virt. eigenvalues --    2.34285   2.37502   2.40183   2.42285   2.43222
 Alpha virt. eigenvalues --    2.44948   2.47251   2.48449   2.53482   2.54522
 Alpha virt. eigenvalues --    2.56417   2.59456   2.61918   2.62589   2.63722
 Alpha virt. eigenvalues --    2.64650   2.66596   2.67581   2.68919   2.70813
 Alpha virt. eigenvalues --    2.71016   2.73634   2.77069   2.77276   2.78417
 Alpha virt. eigenvalues --    2.80404   2.83928   2.87268   2.88145   2.91254
 Alpha virt. eigenvalues --    2.93134   2.95410   2.97506   3.02528   3.04265
 Alpha virt. eigenvalues --    3.05233   3.09586   3.11791   3.13725   3.21553
 Alpha virt. eigenvalues --    3.33990   3.41352   3.43697   3.46362   3.47319
 Alpha virt. eigenvalues --    3.49684   3.52492   3.54366   3.59996   3.60440
 Alpha virt. eigenvalues --    4.27941   4.35517   4.42339   4.45571   4.48970
 Alpha virt. eigenvalues --    4.56878   4.64050   4.75775   4.90756   4.95273
 Alpha virt. eigenvalues --    5.06668
          Condensed to atoms (all electrons):
              1          2          3          4          5          6
     1  C    5.593282  -0.169833  -0.261923   0.128605  -0.003773  -0.127824
     2  C   -0.169833   6.933706  -0.313054  -0.106182   0.269948  -0.853958
     3  C   -0.261923  -0.313054   6.121257  -0.026332  -0.436198   0.094167
     4  C    0.128605  -0.106182  -0.026332   6.010755  -0.212758  -0.307867
     5  C   -0.003773   0.269948  -0.436198  -0.212758   6.647692  -0.428376
     6  C   -0.127824  -0.853958   0.094167  -0.307867  -0.428376   7.165527
     7  O   -0.035286   0.107163   0.325357   0.034964  -0.170769  -0.133781
     8  O    0.189779  -0.153557   0.306977  -0.004589  -0.178640   0.089661
     9  O    0.004043  -0.132255  -0.013937  -0.077658   0.026465   0.348612
    10  O    0.016455   0.022543   0.002240   0.266336  -0.033106  -0.197007
    11  O    0.008632  -0.021187  -0.048794  -0.058992   0.106827   0.045781
    12  H    0.461012  -0.124541   0.009208   0.005283   0.018194  -0.003163
    13  H    0.376159  -0.015912  -0.008814  -0.007486   0.001315   0.030168
    14  H    0.014091   0.320741   0.002941   0.031011  -0.008730  -0.013790
    15  H    0.010787   0.005739   0.384803   0.021198  -0.061841   0.016680
    16  H   -0.005140   0.035595   0.026980   0.369458   0.014690  -0.107156
    17  H    0.024017  -0.004806  -0.030311   0.008226   0.320464  -0.019609
    18  H    0.055258  -0.132599  -0.007370  -0.059542   0.017514   0.444127
    19  H    0.007704  -0.027698  -0.003031  -0.069314   0.013266   0.054541
    20  H   -0.002222   0.011133   0.002841   0.013937  -0.033237  -0.007184
    21  H    0.000751  -0.000960  -0.052340  -0.002347   0.067242  -0.001013
              7          8          9         10         11         12
     1  C   -0.035286   0.189779   0.004043   0.016455   0.008632   0.461012
     2  C    0.107163  -0.153557  -0.132255   0.022543  -0.021187  -0.124541
     3  C    0.325357   0.306977  -0.013937   0.002240  -0.048794   0.009208
     4  C    0.034964  -0.004589  -0.077658   0.266336  -0.058992   0.005283
     5  C   -0.170769  -0.178640   0.026465  -0.033106   0.106827   0.018194
     6  C   -0.133781   0.089661   0.348612  -0.197007   0.045781  -0.003163
     7  O    8.317270  -0.075329   0.007200   0.016967   0.018257   0.012039
     8  O   -0.075329   8.335139  -0.001120  -0.000792   0.006051  -0.052037
     9  O    0.007200  -0.001120   8.221204  -0.021126  -0.000557   0.000717
    10  O    0.016967  -0.000792  -0.021126   8.334088  -0.022805  -0.000057
    11  O    0.018257   0.006051  -0.000557  -0.022805   8.328090  -0.000057
    12  H    0.012039  -0.052037   0.000717  -0.000057  -0.000057   0.529184
    13  H   -0.005707  -0.045069  -0.000432   0.000056   0.000048  -0.037475
    14  H   -0.037040   0.010001  -0.003611  -0.001306   0.000140   0.001738
    15  H   -0.057444  -0.038014   0.000009  -0.000858  -0.002719  -0.000264
    16  H    0.001642  -0.002024   0.001710  -0.053533  -0.001262  -0.000005
    17  H    0.009871  -0.001077  -0.000495   0.003954  -0.033010  -0.000067
    18  H    0.009804  -0.001351  -0.058898   0.008179  -0.000214   0.002154
    19  H    0.002153  -0.000202   0.248128   0.026502  -0.000203  -0.000009
    20  H   -0.001587  -0.000357   0.001308   0.248517   0.027517   0.000000
    21  H   -0.001855   0.000388   0.000056   0.001291   0.239302   0.000000
             13         14         15         16         17         18
     1  C    0.376159   0.014091   0.010787  -0.005140   0.024017   0.055258
     2  C   -0.015912   0.320741   0.005739   0.035595  -0.004806  -0.132599
     3  C   -0.008814   0.002941   0.384803   0.026980  -0.030311  -0.007370
     4  C   -0.007486   0.031011   0.021198   0.369458   0.008226  -0.059542
     5  C    0.001315  -0.008730  -0.061841   0.014690   0.320464   0.017514
     6  C    0.030168  -0.013790   0.016680  -0.107156  -0.019609   0.444127
     7  O   -0.005707  -0.037040  -0.057444   0.001642   0.009871   0.009804
     8  O   -0.045069   0.010001  -0.038014  -0.002024  -0.001077  -0.001351
     9  O   -0.000432  -0.003611   0.000009   0.001710  -0.000495  -0.058898
    10  O    0.000056  -0.001306  -0.000858  -0.053533   0.003954   0.008179
    11  O    0.000048   0.000140  -0.002719  -0.001262  -0.033010  -0.000214
    12  H   -0.037475   0.001738  -0.000264  -0.000005  -0.000067   0.002154
    13  H    0.538516  -0.002578   0.000562   0.000001  -0.000031   0.000072
    14  H   -0.002578   0.490231   0.000051  -0.000125   0.000023   0.001813
    15  H    0.000562   0.000051   0.537573  -0.000155   0.000085   0.000017
    16  H    0.000001  -0.000125  -0.000155   0.551560  -0.005183  -0.003715
    17  H   -0.000031   0.000023   0.000085  -0.005183   0.535801   0.001186
    18  H    0.000072   0.001813   0.000017  -0.003715   0.001186   0.538649
    19  H    0.000004  -0.000164  -0.000001  -0.000020  -0.000007   0.006481
    20  H   -0.000001   0.000001  -0.000190   0.002702   0.000767  -0.000152
    21  H    0.000000   0.000000   0.004277  -0.000213  -0.004384   0.000002
             19         20         21
     1  C    0.007704  -0.002222   0.000751
     2  C   -0.027698   0.011133  -0.000960
     3  C   -0.003031   0.002841  -0.052340
     4  C   -0.069314   0.013937  -0.002347
     5  C    0.013266  -0.033237   0.067242
     6  C    0.054541  -0.007184  -0.001013
     7  O    0.002153  -0.001587  -0.001855
     8  O   -0.000202  -0.000357   0.000388
     9  O    0.248128   0.001308   0.000056
    10  O    0.026502   0.248517   0.001291
    11  O   -0.000203   0.027517   0.239302
    12  H   -0.000009   0.000000   0.000000
    13  H    0.000004  -0.000001   0.000000
    14  H   -0.000164   0.000001   0.000000
    15  H   -0.000001  -0.000190   0.004277
    16  H   -0.000020   0.002702  -0.000213
    17  H   -0.000007   0.000767  -0.004384
    18  H    0.006481  -0.000152   0.000002
    19  H    0.351601  -0.000054   0.000000
    20  H   -0.000054   0.327785  -0.000949
    21  H    0.000000  -0.000949   0.351707
 Mulliken atomic charges:
              1
     1  C   -0.284574
     2  C    0.349975
     3  C   -0.074668
     4  C    0.043294
     5  C    0.063809
     6  C   -0.088536
     7  O   -0.343888
     8  O   -0.383837
     9  O   -0.549361
    10  O   -0.616537
    11  O   -0.590845
    12  H    0.178146
    13  H    0.176602
    14  H    0.194563
    15  H    0.179705
    16  H    0.174194
    17  H    0.194583
    18  H    0.178584
    19  H    0.390323
    20  H    0.409424
    21  H    0.399045
 Sum of Mulliken atomic charges =   0.00000
 Mulliken charges with hydrogens summed into heavy atoms:
              1
     1  C    0.070174
     2  C    0.544538
     3  C    0.105037
     4  C    0.217488
     5  C    0.258392
     6  C    0.090048
     7  O   -0.343888
     8  O   -0.383837
     9  O   -0.159039
    10  O   -0.207113
    11  O   -0.191800
 Sum of Mulliken charges with hydrogens summed into heavy atoms =   0.00000
 Electronic spatial extent (au):  <R**2>=           1449.7579
 Charge=              0.0000 electrons
 Dipole moment (field-independent basis, Debye):
    X=             -1.5800    Y=             -3.3209    Z=             -1.0434  Tot=              3.8228
 Quadrupole moment (field-independent basis, Debye-Ang):
   XX=            -66.8974   YY=            -64.3625   ZZ=            -64.3955
   XY=             -8.1163   XZ=              0.4277   YZ=             -0.4612
 Traceless Quadrupole moment (field-independent basis, Debye-Ang):
   XX=             -1.6789   YY=              0.8559   ZZ=              0.8230
   XY=             -8.1163   XZ=              0.4277   YZ=             -0.4612
 Octapole moment (field-independent basis, Debye-Ang**2):
  XXX=            -14.0958  YYY=            -63.2739  ZZZ=             -5.0481  XYY=              9.1556
  XXY=              9.9274  XXZ=              6.6080  XZZ=              5.7339  YZZ=              2.8450
  YYZ=             14.4151  XYZ=              2.8445
 Hexadecapole moment (field-independent basis, Debye-Ang**3):
 XXXX=           -817.9483 YYYY=           -729.2226 ZZZZ=           -223.5451 XXXY=            -24.5103
 XXXZ=              9.3505 YYYX=            -42.5770 YYYZ=             12.1059 ZZZX=              8.3150
 ZZZY=              1.7272 XXYY=           -266.6188 XXZZ=           -164.6318 YYZZ=           -152.2013
 XXYZ=            -10.1749 YYXZ=              6.5555 ZZXY=             -5.8229
 N-N= 7.264907464342D+02 E-N=-2.882859698858D+03  KE= 6.052079274148D+02
 1\1\GINC-COMPUTE-8-11\SP\RmPW1PW91\6-31+G(d,p)\C6H10O5\MMARCARINO.IQUI
 R\12-Apr-2019\0\\# mpw1pw91/6-31+g** nmr scrf=(pcm,solvent=water)\\com
 ment\\0,1\C,0,-2.291256,0.143792,-0.271439\C,0,-1.138725,0.846641,0.44
 965\C,0,-0.598539,-1.293663,0.336959\C,0,1.139627,0.314473,-0.608446\C
 ,0,0.657368,-1.157911,-0.557182\C,0,-0.023041,1.339223,-0.514476\O,0,-
 0.66118,-0.240733,1.274148\O,0,-1.76891,-1.181035,-0.476808\O,0,0.4977
 44,2.599654,-0.116943\O,0,2.01306,0.593033,0.485786\O,0,1.763562,-1.89
 8041,-0.039445\H,0,-2.547019,0.584499,-1.238775\H,0,-3.187738,0.099311
 ,0.357951\H,0,-1.453491,1.658878,1.106187\H,0,-0.611997,-2.2459,0.8778
 77\H,0,1.687768,0.482611,-1.544442\H,0,0.398726,-1.502192,-1.565616\H,
 0,-0.453647,1.490891,-1.509888\H,0,1.155249,2.389182,0.572626\H,0,2.28
 7795,-0.271169,0.843345\H,0,1.497551,-2.824465,0.076451\\Version=EM64L
 -G09RevC.01\State=1-A\HF=-610.642415\RMSD=4.745e-09\Dipole=-0.6216403,
 -1.3065618,-0.4104987\Quadrupole=-1.2482618,0.6363841,0.6118776,-6.034
 2577,0.3180071,-0.342928\PG=C01 [X(C6H10O5)]\\@


 Everywhere is walking distance if you have the time.
                                    -- Steven Wright
 Job cpu time:  0 days  0 hours 19 minutes 50.4 seconds.
 File lengths (MBytes):  RWF=     83 Int=      0 D2E=      0 Chk=      5 Scr=      1
 Normal termination of Gaussian 09 at Fri Apr 12 11:35:51 2019.
