 Entering Gaussian System, Link 0=g09
 Input=/home/mmarcarino.iquir/NMR/04_RRR_Levo04_OPTB_nmr.gjc
 Output=/home/mmarcarino.iquir/NMR/04_RRR_Levo04_OPTB_nmr.log
 Initial command:
 /share/apps/Gaussian09/EM64T.SSE4.2-enabled/g09/l1.exe /tmp/Gau-64119.inp -scrdir=/tmp/
 Entering Link 1 = /share/apps/Gaussian09/EM64T.SSE4.2-enabled/g09/l1.exe PID=     64120.
  
 Copyright (c) 1988,1990,1992,1993,1995,1998,2003,2009,2011,
            Gaussian, Inc.  All Rights Reserved.
  
 This is part of the Gaussian(R) 09 program.  It is based on
 the Gaussian(R) 03 system (copyright 2003, Gaussian, Inc.),
 the Gaussian(R) 98 system (copyright 1998, Gaussian, Inc.),
 the Gaussian(R) 94 system (copyright 1995, Gaussian, Inc.),
 the Gaussian 92(TM) system (copyright 1992, Gaussian, Inc.),
 the Gaussian 90(TM) system (copyright 1990, Gaussian, Inc.),
 the Gaussian 88(TM) system (copyright 1988, Gaussian, Inc.),
 the Gaussian 86(TM) system (copyright 1986, Carnegie Mellon
 University), and the Gaussian 82(TM) system (copyright 1983,
 Carnegie Mellon University). Gaussian is a federally registered
 trademark of Gaussian, Inc.
  
 This software contains proprietary and confidential information,
 including trade secrets, belonging to Gaussian, Inc.
  
 This software is provided under written license and may be
 used, copied, transmitted, or stored only in accord with that
 written license.
  
 The following legend is applicable only to US Government
 contracts under FAR:
  
                    RESTRICTED RIGHTS LEGEND
  
 Use, reproduction and disclosure by the US Government is
 subject to restrictions as set forth in subparagraphs (a)
 and (c) of the Commercial Computer Software - Restricted
 Rights clause in FAR 52.227-19.
  
 Gaussian, Inc.
 340 Quinnipiac St., Bldg. 40, Wallingford CT 06492
  
  
 ---------------------------------------------------------------
 Warning -- This program may not be used in any manner that
 competes with the business of Gaussian, Inc. or will provide
 assistance to any competitor of Gaussian, Inc.  The licensee
 of this program is prohibited from giving any competitor of
 Gaussian, Inc. access to this program.  By using this program,
 the user acknowledges that Gaussian, Inc. is engaged in the
 business of creating and licensing software in the field of
 computational chemistry and represents and warrants to the
 licensee that it is not a competitor of Gaussian, Inc. and that
 it will not use this program in any manner prohibited above.
 ---------------------------------------------------------------
  

 Cite this work as:
 Gaussian 09, Revision C.01,
 M. J. Frisch, G. W. Trucks, H. B. Schlegel, G. E. Scuseria, 
 M. A. Robb, J. R. Cheeseman, G. Scalmani, V. Barone, B. Mennucci, 
 G. A. Petersson, H. Nakatsuji, M. Caricato, X. Li, H. P. Hratchian, 
 A. F. Izmaylov, J. Bloino, G. Zheng, J. L. Sonnenberg, M. Hada, 
 M. Ehara, K. Toyota, R. Fukuda, J. Hasegawa, M. Ishida, T. Nakajima, 
 Y. Honda, O. Kitao, H. Nakai, T. Vreven, J. A. Montgomery, Jr., 
 J. E. Peralta, F. Ogliaro, M. Bearpark, J. J. Heyd, E. Brothers, 
 K. N. Kudin, V. N. Staroverov, T. Keith, R. Kobayashi, J. Normand, 
 K. Raghavachari, A. Rendell, J. C. Burant, S. S. Iyengar, J. Tomasi, 
 M. Cossi, N. Rega, J. M. Millam, M. Klene, J. E. Knox, J. B. Cross, 
 V. Bakken, C. Adamo, J. Jaramillo, R. Gomperts, R. E. Stratmann, 
 O. Yazyev, A. J. Austin, R. Cammi, C. Pomelli, J. W. Ochterski, 
 R. L. Martin, K. Morokuma, V. G. Zakrzewski, G. A. Voth, 
 P. Salvador, J. J. Dannenberg, S. Dapprich, A. D. Daniels, 
 O. Farkas, J. B. Foresman, J. V. Ortiz, J. Cioslowski, 
 and D. J. Fox, Gaussian, Inc., Wallingford CT, 2010.
 
 ******************************************
 Gaussian 09:  EM64L-G09RevC.01 23-Sep-2011
                12-Apr-2019 
 ******************************************
 %nprocshared=4
 Will use up to    4 processors via shared memory.
 ------------------------------------------------
 # mpw1pw91/6-31+g** nmr scrf=(pcm,solvent=water)
 ------------------------------------------------
 1/38=1/1;
 2/12=2,17=6,18=5,40=1/2;
 3/5=1,6=6,7=111,11=2,16=1,25=1,30=1,70=2201,72=1,74=-7/1,2,8,3;
 4//1;
 5/5=2,38=5,53=1/2;
 8/6=1,10=90,11=11/1;
 10/13=100,45=16/2;
 6/7=2,8=2,9=2,10=2,28=1/1;
 99/9=1/99;
 -------
 comment
 -------
 Charge =  0 Multiplicity = 1
 Symbolic Z-Matrix:
 6                     2.03065   0.61715   0.73838 
 6                     1.03822   1.09954  -0.33054 
 6                     0.99825  -1.11834  -0.37307 
 6                    -0.83915  -0.01367   0.94663 
 6                    -0.45245  -1.26319   0.12464 
 6                    -0.40207   1.26761   0.19758 
 8                     1.06754  -0.00841  -1.25035 
 8                     1.87099  -0.81704   0.71594 
 8                    -1.31728   1.42994  -0.89068 
 8                    -2.22301  -0.01302   1.24461 
 8                    -1.34067  -1.42962  -0.97972 
 1                     1.81565   0.99743   1.74187 
 1                     3.06115   0.87123   0.46984 
 1                     1.3742    1.98955  -0.86758 
 1                     1.35011  -2.00737  -0.90207 
 1                    -0.31781  -0.04616   1.9067 
 1                    -0.55459  -2.16055   0.74205 
 1                    -0.45422   2.13207   0.87419 
 1                    -1.07235   2.22842  -1.38625 
 1                    -2.66362  -0.21361   0.39963 
 1                    -1.23984  -0.62055  -1.51849 
 
                          Input orientation:                          
 ---------------------------------------------------------------------
 Center     Atomic      Atomic             Coordinates (Angstroms)
 Number     Number       Type             X           Y           Z
 ---------------------------------------------------------------------
      1          6           0        2.030654    0.617152    0.738378
      2          6           0        1.038222    1.099544   -0.330538
      3          6           0        0.998249   -1.118337   -0.373069
      4          6           0       -0.839147   -0.013670    0.946633
      5          6           0       -0.452449   -1.263185    0.124641
      6          6           0       -0.402072    1.267613    0.197576
      7          8           0        1.067542   -0.008408   -1.250354
      8          8           0        1.870985   -0.817037    0.715943
      9          8           0       -1.317276    1.429936   -0.890679
     10          8           0       -2.223012   -0.013017    1.244611
     11          8           0       -1.340669   -1.429619   -0.979721
     12          1           0        1.815652    0.997429    1.741867
     13          1           0        3.061145    0.871227    0.469838
     14          1           0        1.374202    1.989554   -0.867584
     15          1           0        1.350113   -2.007374   -0.902074
     16          1           0       -0.317805   -0.046156    1.906699
     17          1           0       -0.554588   -2.160547    0.742047
     18          1           0       -0.454216    2.132069    0.874191
     19          1           0       -1.072355    2.228418   -1.386246
     20          1           0       -2.663616   -0.213614    0.399630
     21          1           0       -1.239839   -0.620552   -1.518489
 ---------------------------------------------------------------------
                    Distance matrix (angstroms):
                    1          2          3          4          5
     1  C    0.000000
     2  C    1.536296   0.000000
     3  C    2.305016   2.218649   0.000000
     4  C    2.945686   2.528819   2.517524   0.000000
     5  C    3.174609   2.830508   1.540526   1.544828   0.000000
     6  C    2.575601   1.543243   2.824764   1.547193   2.532350
     7  O    2.296511   1.440305   1.416465   2.908993   2.403216
     8  O    1.443224   2.337071   1.427724   2.836094   2.438654
     9  O    3.810916   2.443622   3.481849   2.385020   3.005279
    10  O    4.329787   3.788738   3.770298   1.415582   2.439702
    11  O    4.301971   3.532312   2.436280   2.442801   1.426972
    12  H    1.094453   2.215781   3.101220   2.950030   3.587489
    13  H    1.094797   2.187452   2.987373   4.027736   4.125557
    14  H    2.212133   1.092437   3.169365   3.493308   3.860243
    15  H    3.168968   3.174408   1.092722   3.490764   2.203904
    16  H    2.705589   2.855988   2.842343   1.092968   2.162179
    17  H    3.794615   3.783606   2.177381   2.175295   1.094021
    18  H    2.913417   2.178268   3.772327   2.181196   3.477007
    19  H    4.091316   2.615991   4.063828   3.244020   3.854654
    20  H    4.779236   3.995139   3.850304   1.915170   2.463022
    21  H    4.161909   3.091847   2.562970   2.570153   1.932055
                    6          7          8          9         10
     6  C    0.000000
     7  O    2.425798   0.000000
     8  O    3.127500   2.272823   0.000000
     9  O    1.431169   2.808123   4.218427   0.000000
    10  O    2.460105   4.129481   4.205562   2.731654   0.000000
    11  O    3.089021   2.809371   3.683104   2.861037   2.780817
    12  H    2.715904   3.244189   2.085154   4.114924   4.192740
    13  H    3.496444   2.776197   2.080212   4.618845   5.413361
    14  H    2.193380   2.057281   3.260568   2.749138   4.627268
    15  H    3.873619   2.048661   2.075136   4.350884   4.620924
    16  H    2.157357   3.447839   2.608248   3.317094   2.017244
    17  H    3.474477   3.351518   2.772924   4.017344   2.765519
    18  H    1.099005   3.378029   3.758833   2.086296   2.804861
    19  H    1.970004   3.098551   4.728345   0.971157   3.642726
    20  H    2.710985   4.084862   4.585497   2.485716   0.973840
    21  H    2.685498   2.402212   3.835169   2.145843   2.995071
                   11         12         13         14         15
    11  O    0.000000
    12  H    4.822859   0.000000
    13  H    5.174078   1.784723   0.000000
    14  H    4.367361   2.826380   2.425929   0.000000
    15  H    2.753205   4.029391   3.618856   3.997149   0.000000
    16  H    3.360304   2.380731   3.784635   3.834534   3.810188
    17  H    2.028956   4.073143   4.726444   4.851235   2.520810
    18  H    4.111984   2.681897   3.756459   2.529269   4.852392
    19  H    3.690324   4.431818   4.729993   2.512311   4.903540
    20  H    2.265274   4.830328   5.827066   4.771138   4.584979
    21  H    0.977255   4.752243   4.967626   3.750939   3.001848
                   16         17         18         19         20
    16  H    0.000000
    17  H    2.425516   0.000000
    18  H    2.414404   4.295822   0.000000
    19  H    4.072655   4.905174   2.345411   0.000000
    20  H    2.793229   2.890639   3.257128   3.418331   0.000000
    21  H    3.593326   2.819783   3.730823   2.856951   2.423204
                   21
    21  H    0.000000
 Stoichiometry    C6H10O5
 Framework group  C1[X(C6H10O5)]
 Deg. of freedom    57
 Full point group                 C1      NOp   1
 Largest Abelian subgroup         C1      NOp   1
 Largest concise Abelian subgroup C1      NOp   1
                         Standard orientation:                         
 ---------------------------------------------------------------------
 Center     Atomic      Atomic             Coordinates (Angstroms)
 Number     Number       Type             X           Y           Z
 ---------------------------------------------------------------------
      1          6           0        2.030654    0.617152    0.738378
      2          6           0        1.038222    1.099544   -0.330538
      3          6           0        0.998249   -1.118337   -0.373069
      4          6           0       -0.839147   -0.013670    0.946633
      5          6           0       -0.452449   -1.263185    0.124641
      6          6           0       -0.402072    1.267613    0.197576
      7          8           0        1.067542   -0.008408   -1.250354
      8          8           0        1.870985   -0.817037    0.715943
      9          8           0       -1.317276    1.429936   -0.890679
     10          8           0       -2.223012   -0.013017    1.244611
     11          8           0       -1.340669   -1.429619   -0.979721
     12          1           0        1.815652    0.997429    1.741867
     13          1           0        3.061145    0.871227    0.469838
     14          1           0        1.374202    1.989554   -0.867584
     15          1           0        1.350113   -2.007374   -0.902074
     16          1           0       -0.317805   -0.046156    1.906699
     17          1           0       -0.554588   -2.160547    0.742047
     18          1           0       -0.454216    2.132069    0.874191
     19          1           0       -1.072355    2.228418   -1.386246
     20          1           0       -2.663616   -0.213614    0.399630
     21          1           0       -1.239839   -0.620552   -1.518489
 ---------------------------------------------------------------------
 Rotational constants (GHZ):      1.7180679      1.1350082      1.0166731
 Standard basis: 6-31+G(d,p) (6D, 7F)
 There are   259 symmetry adapted basis functions of A   symmetry.
 Integral buffers will be    131072 words long.
 Raffenetti 2 integral format.
 Two-electron integral symmetry is turned on.
   259 basis functions,   422 primitive gaussians,   259 cartesian basis functions
    43 alpha electrons       43 beta electrons
       nuclear repulsion energy       736.7185903443 Hartrees.
 NAtoms=   21 NActive=   21 NUniq=   21 SFac= 1.00D+00 NAtFMM=   60 NAOKFM=F Big=F
 ------------------------------------------------------------------------------
 Polarizable Continuum Model (PCM)
 =================================
 Model                : PCM.
 Atomic radii         : UFF (Universal Force Field).
 Polarization charges : Total charges.
 Charge compensation  : None.
 Solution method      : Matrix inversion.
 Cavity type          : Scaled VdW (van der Waals Surface) (Alpha=1.100).
 Cavity algorithm     : GePol (No added spheres)
                        Default sphere list used, NSphG=   21.
                        Lebedev-Laikov grids with approx.  5.0 points / Ang**2.
                        Smoothing algorithm: Karplus/York (Gamma=1.0000).
                        Polarization charges: spherical gaussians, with
                                              point-specific exponents (IZeta= 3).
                        Self-potential: point-specific (ISelfS= 7).
                        Self-field    : sphere-specific E.n sum rule (ISelfD= 2).
 Solvent              : Water, Eps=  78.355300 Eps(inf)=   1.777849
 ------------------------------------------------------------------------------
 One-electron integrals computed using PRISM.
 NBasis=   259 RedAO= T  NBF=   259
 NBsUse=   259 1.00D-06 NBFU=   259
 Harris functional with IExCor=  908 diagonalized for initial guess.
 ExpMin= 4.38D-02 ExpMax= 5.48D+03 ExpMxC= 8.25D+02 IAcc=2 IRadAn=         4 AccDes= 0.00D+00
 HarFok:  IExCor=  908 AccDes= 0.00D+00 IRadAn=         4 IDoV= 1
 ScaDFX=  1.000000  1.000000  1.000000  1.000000
 FoFCou: FMM=F IPFlag=           0 FMFlag=      100000 FMFlg1=           0
         NFxFlg=           0 DoJE=T BraDBF=F KetDBF=T FulRan=T
         Omega=  0.000000  0.000000  1.000000  0.000000  0.000000 ICntrl=     500 IOpCl=  0
         NMat0=    1 NMatS0=    1 NMatT0=    0 NMatD0=    1 NMtDS0=    0 NMtDT0=    0
         I1Cent=           4 NGrid=           0.
 Petite list used in FoFCou.
 Initial guess orbital symmetries:
       Occupied  (A) (A) (A) (A) (A) (A) (A) (A) (A) (A) (A) (A)
                 (A) (A) (A) (A) (A) (A) (A) (A) (A) (A) (A) (A)
                 (A) (A) (A) (A) (A) (A) (A) (A) (A) (A) (A) (A)
                 (A) (A) (A) (A) (A) (A) (A)
       Virtual   (A) (A) (A) (A) (A) (A) (A) (A) (A) (A) (A) (A)
                 (A) (A) (A) (A) (A) (A) (A) (A) (A) (A) (A) (A)
                 (A) (A) (A) (A) (A) (A) (A) (A) (A) (A) (A) (A)
                 (A) (A) (A) (A) (A) (A) (A) (A) (A) (A) (A) (A)
                 (A) (A) (A) (A) (A) (A) (A) (A) (A) (A) (A) (A)
                 (A) (A) (A) (A) (A) (A) (A) (A) (A) (A) (A) (A)
                 (A) (A) (A) (A) (A) (A) (A) (A) (A) (A) (A) (A)
                 (A) (A) (A) (A) (A) (A) (A) (A) (A) (A) (A) (A)
                 (A) (A) (A) (A) (A) (A) (A) (A) (A) (A) (A) (A)
                 (A) (A) (A) (A) (A) (A) (A) (A) (A) (A) (A) (A)
                 (A) (A) (A) (A) (A) (A) (A) (A) (A) (A) (A) (A)
                 (A) (A) (A) (A) (A) (A) (A) (A) (A) (A) (A) (A)
                 (A) (A) (A) (A) (A) (A) (A) (A) (A) (A) (A) (A)
                 (A) (A) (A) (A) (A) (A) (A) (A) (A) (A) (A) (A)
                 (A) (A) (A) (A) (A) (A) (A) (A) (A) (A) (A) (A)
                 (A) (A) (A) (A) (A) (A) (A) (A) (A) (A) (A) (A)
                 (A) (A) (A) (A) (A) (A) (A) (A) (A) (A) (A) (A)
                 (A) (A) (A) (A) (A) (A) (A) (A) (A) (A) (A) (A)
 The electronic state of the initial guess is 1-A.
 Requested convergence on RMS density matrix=1.00D-08 within 128 cycles.
 Requested convergence on MAX density matrix=1.00D-06.
 Requested convergence on             energy=1.00D-06.
 No special actions if energy rises.
 Error on total polarization charges =  0.01149
 SCF Done:  E(RmPW1PW91) =  -610.652960011     A.U. after   12 cycles
             Convg  =    0.5897D-08             -V/T =  2.0090
 Range of M.O.s used for correlation:     1   259
 NBasis=   259 NAE=    43 NBE=    43 NFC=     0 NFV=     0
 NROrb=    259 NOA=    43 NOB=    43 NVA=   216 NVB=   216

 **** Warning!!: The largest alpha MO coefficient is  0.51579582D+02

 NEqPCM:  Using equilibrium solvation (IEInf=0, Eps=  78.3553, EpsInf=   1.7778)
          Differentiating once with respect to magnetic field using GIAOs.
          Electric field/nuclear overlap derivatives assumed to be zero.
 FoFCou: FMM=F IPFlag=           0 FMFlag=    10101102 FMFlg1=           0
         NFxFlg=    40000000 DoJE=F BraDBF=F KetDBF=T FulRan=T
         Omega=  0.000000  0.000000  1.000000  0.000000  0.000000 ICntrl=    6100 IOpCl=  0
         NMat0=    1 NMatS0=    1 NMatT0=    0 NMatD0=    1 NMtDS0=    0 NMtDT0=    0
         I1Cent=           7 NGrid=        1526.
 Symmetry not used in FoFCou.
          There are     3 degrees of freedom in the 1st order CPHF.  IDoFFX=0.
      3 vectors produced by pass  0 Test12= 3.10D-13 3.33D-08 XBig12= 2.00D+01 8.71D-01.
 AX will form     3 AO Fock derivatives at one time.
      3 vectors produced by pass  1 Test12= 3.10D-13 3.33D-08 XBig12= 4.59D-02 2.60D-02.
      3 vectors produced by pass  2 Test12= 3.10D-13 3.33D-08 XBig12= 9.20D-05 1.74D-03.
      3 vectors produced by pass  3 Test12= 3.10D-13 3.33D-08 XBig12= 4.38D-07 9.17D-05.
      3 vectors produced by pass  4 Test12= 3.10D-13 3.33D-08 XBig12= 1.30D-09 5.91D-06.
      3 vectors produced by pass  5 Test12= 3.10D-13 3.33D-08 XBig12= 4.22D-12 3.83D-07.
 Inverted reduced A of dimension    18 with in-core refinement.
 Calculating GIAO nuclear magnetic shielding tensors.
 SCF GIAO Magnetic shielding tensor (ppm):
      1  C    Isotropic =   130.3480   Anisotropy =    62.8373
   XX=   110.8856   YX=     7.9440   ZX=    11.1337
   XY=     3.4363   YY=   171.6856   ZY=    -5.5613
   XZ=     5.5903   YZ=     1.4443   ZZ=   108.4729
   Eigenvalues:   100.8342   117.9703   172.2396
      2  C    Isotropic =   117.4520   Anisotropy =    47.8065
   XX=   107.0477   YX=    -7.8245   ZX=    12.7552
   XY=    -5.9125   YY=   128.8452   ZY=    19.6201
   XZ=     0.4310   YZ=    32.1739   ZZ=   116.4631
   Eigenvalues:    90.6080   112.4250   149.3230
      3  C    Isotropic =    92.7406   Anisotropy =    32.6570
   XX=    90.7369   YX=    13.4308   ZX=    23.8203
   XY=     9.0140   YY=    88.7792   ZY=    -2.5645
   XZ=    14.5592   YZ=   -20.6454   ZZ=    98.7057
   Eigenvalues:    64.5051    99.2047   114.5119
      4  C    Isotropic =   130.4480   Anisotropy =    51.4713
   XX=   163.9653   YX=    -1.4760   ZX=   -12.2752
   XY=     0.7211   YY=   118.7711   ZY=    -3.1640
   XZ=    -1.1043   YZ=    -3.1883   ZZ=   108.6077
   Eigenvalues:   106.9456   119.6362   164.7623
      5  C    Isotropic =   121.4230   Anisotropy =    37.0396
   XX=   128.0277   YX=    -1.3512   ZX=    25.6467
   XY=    -1.9180   YY=   105.7473   ZY=     6.2387
   XZ=     7.2355   YZ=     7.1788   ZZ=   130.4940
   Eigenvalues:   102.2578   115.8951   146.1160
      6  C    Isotropic =   121.0528   Anisotropy =    39.3112
   XX=   126.9365   YX=    -5.1702   ZX=    24.4100
   XY=    -2.9836   YY=   102.8928   ZY=    -1.3227
   XZ=     7.9462   YZ=    -5.7304   ZZ=   133.3291
   Eigenvalues:   102.1851   113.7130   147.2603
      7  O    Isotropic =   258.0231   Anisotropy =    59.9933
   XX=   220.4347   YX=    30.2767   ZX=    33.7825
   XY=    18.6867   YY=   284.8648   ZY=   -17.5731
   XZ=    58.2899   YZ=    -5.0032   ZZ=   268.7698
   Eigenvalues:   185.3868   290.6638   298.0187
      8  O    Isotropic =   267.0435   Anisotropy =   113.5576
   XX=   233.6693   YX=    12.8492   ZX=    72.1725
   XY=    15.7214   YY=   283.7117   ZY=   -19.8595
   XZ=    70.6178   YZ=   -51.8078   ZZ=   283.7493
   Eigenvalues:   173.3132   285.0687   342.7485
      9  O    Isotropic =   295.7555   Anisotropy =    70.1776
   XX=   270.8273   YX=     9.6762   ZX=   -20.4106
   XY=    -0.2253   YY=   311.8452   ZY=   -37.0421
   XZ=    10.3771   YZ=   -29.8928   ZZ=   304.5941
   Eigenvalues:   270.0957   274.6303   342.5406
     10  O    Isotropic =   305.8036   Anisotropy =    31.7611
   XX=   301.5205   YX=     3.5775   ZX=   -17.5920
   XY=    12.3704   YY=   311.6732   ZY=     7.8856
   XZ=   -30.5383   YZ=     6.4281   ZZ=   304.2171
   Eigenvalues:   275.5865   314.8466   326.9777
     11  O    Isotropic =   300.5115   Anisotropy =    71.5420
   XX=   260.6634   YX=    18.0013   ZX=   -18.1414
   XY=    12.5328   YY=   324.8366   ZY=   -30.0378
   XZ=    16.3766   YZ=   -21.2682   ZZ=   316.0346
   Eigenvalues:   256.7613   296.5671   348.2062
     12  H    Isotropic =    27.7195   Anisotropy =     7.4490
   XX=    26.2952   YX=     1.0209   ZX=     1.1786
   XY=     1.0518   YY=    27.5165   ZY=     4.4160
   XZ=     2.3884   YZ=     2.5440   ZZ=    29.3468
   Eigenvalues:    24.7585    25.7146    32.6855
     13  H    Isotropic =    27.6963   Anisotropy =    11.4890
   XX=    32.7517   YX=     3.7696   ZX=     1.0115
   XY=     5.1148   YY=    27.7734   ZY=    -0.7065
   XZ=    -0.0294   YZ=    -0.5283   ZZ=    22.5637
   Eigenvalues:    22.3468    25.3865    35.3556
     14  H    Isotropic =    27.1387   Anisotropy =     8.4846
   XX=    25.9571   YX=     2.8730   ZX=    -1.7586
   XY=     2.3060   YY=    31.2233   ZY=    -2.6895
   XZ=    -0.6186   YZ=    -0.8546   ZZ=    24.2356
   Eigenvalues:    23.5921    25.0289    32.7951
     15  H    Isotropic =    26.0205   Anisotropy =     8.0329
   XX=    24.4379   YX=    -2.0446   ZX=    -0.4892
   XY=    -2.5622   YY=    29.6644   ZY=     2.6162
   XZ=    -0.1494   YZ=     2.4658   ZZ=    23.9591
   Eigenvalues:    22.7336    23.9520    31.3757
     16  H    Isotropic =    27.8832   Anisotropy =     4.5118
   XX=    30.3441   YX=    -0.1257   ZX=     1.1762
   XY=     0.2167   YY=    22.6107   ZY=    -0.8087
   XZ=    -0.6152   YZ=    -0.5538   ZZ=    30.6950
   Eigenvalues:    22.5531    30.2055    30.8911
     17  H    Isotropic =    27.9533   Anisotropy =     6.9512
   XX=    25.7540   YX=    -0.5824   ZX=     1.8423
   XY=     0.5977   YY=    30.4175   ZY=    -2.7614
   XZ=     1.4102   YZ=    -3.5003   ZZ=    27.6885
   Eigenvalues:    24.2834    26.9891    32.5874
     18  H    Isotropic =    27.5168   Anisotropy =     7.0811
   XX=    25.2139   YX=     0.3171   ZX=     2.5626
   XY=    -1.3247   YY=    28.9394   ZY=     3.0244
   XZ=     0.9831   YZ=     3.8835   ZZ=    28.3971
   Eigenvalues:    23.5243    26.7886    32.2375
     19  H    Isotropic =    29.9598   Anisotropy =    20.2370
   XX=    24.5640   YX=     1.3143   ZX=     1.6742
   XY=     1.4159   YY=    36.1527   ZY=   -10.0883
   XZ=     0.4462   YZ=   -10.3080   ZZ=    29.1627
   Eigenvalues:    21.0861    25.3422    43.4511
     20  H    Isotropic =    28.5473   Anisotropy =    14.4577
   XX=    31.7100   YX=     1.7098   ZX=     4.2719
   XY=     1.4586   YY=    21.1445   ZY=     4.1226
   XZ=     5.7704   YZ=     3.4336   ZZ=    32.7874
   Eigenvalues:    20.0251    27.4311    38.1858
     21  H    Isotropic =    28.8241   Anisotropy =    16.0968
   XX=    22.8660   YX=     2.9914   ZX=     3.6918
   XY=     1.7544   YY=    35.2091   ZY=    -6.9039
   XZ=     1.9108   YZ=    -6.9841   ZZ=    28.3971
   Eigenvalues:    19.7771    27.1398    39.5553
 End of Minotr Frequency-dependent properties file   721 does not exist.
 End of Minotr Frequency-dependent properties file   722 does not exist.

 **********************************************************************

            Population analysis using the SCF density.

 **********************************************************************

 Orbital symmetries:
       Occupied  (A) (A) (A) (A) (A) (A) (A) (A) (A) (A) (A) (A)
                 (A) (A) (A) (A) (A) (A) (A) (A) (A) (A) (A) (A)
                 (A) (A) (A) (A) (A) (A) (A) (A) (A) (A) (A) (A)
                 (A) (A) (A) (A) (A) (A) (A)
       Virtual   (A) (A) (A) (A) (A) (A) (A) (A) (A) (A) (A) (A)
                 (A) (A) (A) (A) (A) (A) (A) (A) (A) (A) (A) (A)
                 (A) (A) (A) (A) (A) (A) (A) (A) (A) (A) (A) (A)
                 (A) (A) (A) (A) (A) (A) (A) (A) (A) (A) (A) (A)
                 (A) (A) (A) (A) (A) (A) (A) (A) (A) (A) (A) (A)
                 (A) (A) (A) (A) (A) (A) (A) (A) (A) (A) (A) (A)
                 (A) (A) (A) (A) (A) (A) (A) (A) (A) (A) (A) (A)
                 (A) (A) (A) (A) (A) (A) (A) (A) (A) (A) (A) (A)
                 (A) (A) (A) (A) (A) (A) (A) (A) (A) (A) (A) (A)
                 (A) (A) (A) (A) (A) (A) (A) (A) (A) (A) (A) (A)
                 (A) (A) (A) (A) (A) (A) (A) (A) (A) (A) (A) (A)
                 (A) (A) (A) (A) (A) (A) (A) (A) (A) (A) (A) (A)
                 (A) (A) (A) (A) (A) (A) (A) (A) (A) (A) (A) (A)
                 (A) (A) (A) (A) (A) (A) (A) (A) (A) (A) (A) (A)
                 (A) (A) (A) (A) (A) (A) (A) (A) (A) (A) (A) (A)
                 (A) (A) (A) (A) (A) (A) (A) (A) (A) (A) (A) (A)
                 (A) (A) (A) (A) (A) (A) (A) (A) (A) (A) (A) (A)
                 (A) (A) (A) (A) (A) (A) (A) (A) (A) (A) (A) (A)
 The electronic state is 1-A.
 Alpha  occ. eigenvalues --  -19.28048 -19.27237 -19.27127 -19.26281 -19.25977
 Alpha  occ. eigenvalues --  -10.35997 -10.32236 -10.31816 -10.31342 -10.31141
 Alpha  occ. eigenvalues --  -10.31091  -1.14709  -1.08921  -1.06724  -1.05500
 Alpha  occ. eigenvalues --   -1.04123  -0.82717  -0.80851  -0.70659  -0.67972
 Alpha  occ. eigenvalues --   -0.65517  -0.61221  -0.58476  -0.55945  -0.54473
 Alpha  occ. eigenvalues --   -0.51499  -0.50308  -0.48311  -0.48015  -0.46337
 Alpha  occ. eigenvalues --   -0.45638  -0.43758  -0.41744  -0.41414  -0.39298
 Alpha  occ. eigenvalues --   -0.37433  -0.36965  -0.36272  -0.33376  -0.32838
 Alpha  occ. eigenvalues --   -0.30095  -0.29679  -0.27774
 Alpha virt. eigenvalues --    0.00339   0.01543   0.02328   0.02716   0.03906
 Alpha virt. eigenvalues --    0.04480   0.05062   0.05466   0.05956   0.07989
 Alpha virt. eigenvalues --    0.08784   0.09460   0.10127   0.10390   0.11441
 Alpha virt. eigenvalues --    0.11774   0.13156   0.13657   0.13830   0.14456
 Alpha virt. eigenvalues --    0.15457   0.15625   0.16242   0.16848   0.17879
 Alpha virt. eigenvalues --    0.18004   0.19017   0.19335   0.20355   0.20653
 Alpha virt. eigenvalues --    0.21126   0.21626   0.22657   0.22852   0.24099
 Alpha virt. eigenvalues --    0.24246   0.25016   0.25572   0.26693   0.27936
 Alpha virt. eigenvalues --    0.28527   0.29176   0.29684   0.30413   0.31129
 Alpha virt. eigenvalues --    0.31597   0.31994   0.32443   0.33382   0.33734
 Alpha virt. eigenvalues --    0.34305   0.35243   0.35914   0.36739   0.36771
 Alpha virt. eigenvalues --    0.37515   0.38282   0.38869   0.39887   0.39954
 Alpha virt. eigenvalues --    0.42339   0.43203   0.45194   0.45937   0.47277
 Alpha virt. eigenvalues --    0.48685   0.63883   0.65822   0.66886   0.68116
 Alpha virt. eigenvalues --    0.70272   0.72050   0.73119   0.75680   0.77671
 Alpha virt. eigenvalues --    0.80072   0.81228   0.82859   0.84536   0.86123
 Alpha virt. eigenvalues --    0.87973   0.93430   0.95457   0.96555   1.00443
 Alpha virt. eigenvalues --    1.01999   1.03624   1.04097   1.07449   1.08180
 Alpha virt. eigenvalues --    1.09325   1.10072   1.11890   1.12861   1.14008
 Alpha virt. eigenvalues --    1.18809   1.20931   1.21851   1.26277   1.28068
 Alpha virt. eigenvalues --    1.28510   1.29854   1.31600   1.31853   1.33626
 Alpha virt. eigenvalues --    1.34275   1.35709   1.39185   1.40117   1.41523
 Alpha virt. eigenvalues --    1.44573   1.45082   1.47930   1.48814   1.51888
 Alpha virt. eigenvalues --    1.52714   1.56001   1.57900   1.59097   1.60812
 Alpha virt. eigenvalues --    1.61554   1.62399   1.65931   1.70166   1.70867
 Alpha virt. eigenvalues --    1.71270   1.73333   1.75096   1.76493   1.77069
 Alpha virt. eigenvalues --    1.80707   1.83328   1.84856   1.86027   1.86807
 Alpha virt. eigenvalues --    1.89322   1.92200   1.94528   1.97389   2.00064
 Alpha virt. eigenvalues --    2.01434   2.03845   2.05745   2.08077   2.09011
 Alpha virt. eigenvalues --    2.10986   2.11806   2.16790   2.17827   2.18503
 Alpha virt. eigenvalues --    2.19374   2.21185   2.24820   2.26134   2.28956
 Alpha virt. eigenvalues --    2.32238   2.36775   2.37168   2.38474   2.41120
 Alpha virt. eigenvalues --    2.45525   2.47642   2.50172   2.51096   2.52769
 Alpha virt. eigenvalues --    2.55206   2.57956   2.60202   2.60702   2.63152
 Alpha virt. eigenvalues --    2.64852   2.66115   2.67308   2.69688   2.70379
 Alpha virt. eigenvalues --    2.72216   2.76056   2.77839   2.78367   2.80358
 Alpha virt. eigenvalues --    2.83245   2.84648   2.86914   2.90378   2.91123
 Alpha virt. eigenvalues --    2.96198   2.98051   2.98995   3.00228   3.03541
 Alpha virt. eigenvalues --    3.04644   3.08930   3.10023   3.15909   3.19499
 Alpha virt. eigenvalues --    3.35823   3.40640   3.45692   3.47224   3.48530
 Alpha virt. eigenvalues --    3.51087   3.53272   3.55998   3.61124   3.62996
 Alpha virt. eigenvalues --    4.27308   4.34851   4.46343   4.46829   4.48818
 Alpha virt. eigenvalues --    4.56429   4.63207   4.77951   4.85653   4.92365
 Alpha virt. eigenvalues --    5.07521
          Condensed to atoms (all electrons):
              1          2          3          4          5          6
     1  C    5.610873  -0.196462  -0.349644  -0.066208   0.100733   0.051768
     2  C   -0.196462   7.101048  -0.821327   0.305350   0.546231  -1.294005
     3  C   -0.349644  -0.821327   7.169898  -0.143528  -1.295028   0.814826
     4  C   -0.066208   0.305350  -0.143528   6.223107   0.006162  -0.541607
     5  C    0.100733   0.546231  -1.295028   0.006162   7.028290  -0.856441
     6  C    0.051768  -1.294005   0.814826  -0.541607  -0.856441   7.481362
     7  O   -0.048198   0.196794   0.248508  -0.080982  -0.085049  -0.094322
     8  O    0.193479  -0.113675   0.299712   0.060448  -0.194289  -0.038397
     9  O    0.032472   0.004462  -0.066811  -0.159868   0.088942   0.086964
    10  O   -0.016673   0.050945   0.020957   0.361462  -0.108987  -0.178229
    11  O    0.002684  -0.056893  -0.061025  -0.097062   0.239932   0.048545
    12  H    0.446076  -0.145266   0.016335  -0.038128   0.014282   0.066929
    13  H    0.380928   0.001461  -0.008759   0.006691  -0.001846   0.001263
    14  H    0.024914   0.255685   0.016969   0.001995  -0.012451   0.059473
    15  H    0.012479   0.046900   0.305123   0.027540   0.012592  -0.037548
    16  H    0.017115  -0.026100  -0.003257   0.368970  -0.025927  -0.011858
    17  H    0.013316  -0.040762   0.023189  -0.074534   0.343512   0.065526
    18  H    0.019670   0.048416  -0.038974  -0.030778   0.055530   0.247240
    19  H    0.006907  -0.052687   0.008080   0.021174  -0.012319   0.045930
    20  H    0.002976  -0.009257   0.015632   0.041358  -0.064703  -0.013354
    21  H    0.000167  -0.026515  -0.026153  -0.057560   0.032012   0.072430
              7          8          9         10         11         12
     1  C   -0.048198   0.193479   0.032472  -0.016673   0.002684   0.446076
     2  C    0.196794  -0.113675   0.004462   0.050945  -0.056893  -0.145266
     3  C    0.248508   0.299712  -0.066811   0.020957  -0.061025   0.016335
     4  C   -0.080982   0.060448  -0.159868   0.361462  -0.097062  -0.038128
     5  C   -0.085049  -0.194289   0.088942  -0.108987   0.239932   0.014282
     6  C   -0.094322  -0.038397   0.086964  -0.178229   0.048545   0.066929
     7  O    8.301947  -0.035079   0.005911  -0.001951   0.003738   0.010509
     8  O   -0.035079   8.323002   0.000009  -0.001446   0.006642  -0.045759
     9  O    0.005911   0.000009   8.422082   0.005116  -0.003612  -0.000224
    10  O   -0.001951  -0.001446   0.005116   8.212959  -0.022195  -0.000204
    11  O    0.003738   0.006642  -0.003612  -0.022195   8.246672  -0.000058
    12  H    0.010509  -0.045759  -0.000224  -0.000204  -0.000058   0.525050
    13  H   -0.003136  -0.048796  -0.000306   0.000031   0.000111  -0.036229
    14  H   -0.037141   0.007701  -0.006540  -0.000435   0.000087   0.001994
    15  H   -0.047332  -0.037074   0.000587  -0.000587   0.003236  -0.000246
    16  H   -0.001229   0.003894   0.010525  -0.054509   0.009398   0.000367
    17  H    0.010223   0.000852  -0.001092   0.000734  -0.050528   0.000004
    18  H    0.008750  -0.000081  -0.029189   0.001963  -0.001506   0.000247
    19  H   -0.003256  -0.000051   0.234741   0.000488   0.000409   0.000004
    20  H   -0.000895   0.000166   0.009375   0.243996   0.032009  -0.000006
    21  H    0.018776  -0.000349   0.001426  -0.004916   0.247053  -0.000003
             13         14         15         16         17         18
     1  C    0.380928   0.024914   0.012479   0.017115   0.013316   0.019670
     2  C    0.001461   0.255685   0.046900  -0.026100  -0.040762   0.048416
     3  C   -0.008759   0.016969   0.305123  -0.003257   0.023189  -0.038974
     4  C    0.006691   0.001995   0.027540   0.368970  -0.074534  -0.030778
     5  C   -0.001846  -0.012451   0.012592  -0.025927   0.343512   0.055530
     6  C    0.001263   0.059473  -0.037548  -0.011858   0.065526   0.247240
     7  O   -0.003136  -0.037141  -0.047332  -0.001229   0.010223   0.008750
     8  O   -0.048796   0.007701  -0.037074   0.003894   0.000852  -0.000081
     9  O   -0.000306  -0.006540   0.000587   0.010525  -0.001092  -0.029189
    10  O    0.000031  -0.000435  -0.000587  -0.054509   0.000734   0.001963
    11  O    0.000111   0.000087   0.003236   0.009398  -0.050528  -0.001506
    12  H   -0.036229   0.001994  -0.000246   0.000367   0.000004   0.000247
    13  H    0.528631  -0.003061   0.000365   0.000074  -0.000001  -0.000059
    14  H   -0.003061   0.497312  -0.000013  -0.000134   0.000021  -0.002980
    15  H    0.000365  -0.000013   0.530428  -0.000156  -0.003648   0.000025
    16  H    0.000074  -0.000134  -0.000156   0.520276  -0.003612  -0.004553
    17  H   -0.000001   0.000021  -0.003648  -0.003612   0.526381  -0.000119
    18  H   -0.000059  -0.002980   0.000025  -0.004553  -0.000119   0.550432
    19  H   -0.000005   0.002958  -0.000002  -0.000152   0.000016  -0.005701
    20  H    0.000000  -0.000002  -0.000011   0.006425  -0.000400  -0.000435
    21  H    0.000002   0.000076  -0.000198  -0.000243   0.006054   0.000004
             19         20         21
     1  C    0.006907   0.002976   0.000167
     2  C   -0.052687  -0.009257  -0.026515
     3  C    0.008080   0.015632  -0.026153
     4  C    0.021174   0.041358  -0.057560
     5  C   -0.012319  -0.064703   0.032012
     6  C    0.045930  -0.013354   0.072430
     7  O   -0.003256  -0.000895   0.018776
     8  O   -0.000051   0.000166  -0.000349
     9  O    0.234741   0.009375   0.001426
    10  O    0.000488   0.243996  -0.004916
    11  O    0.000409   0.032009   0.247053
    12  H    0.000004  -0.000006  -0.000003
    13  H   -0.000005   0.000000   0.000002
    14  H    0.002958  -0.000002   0.000076
    15  H   -0.000002  -0.000011  -0.000198
    16  H   -0.000152   0.006425  -0.000243
    17  H    0.000016  -0.000400   0.006054
    18  H   -0.005701  -0.000435   0.000004
    19  H    0.350216  -0.000066   0.000552
    20  H   -0.000066   0.356600  -0.002436
    21  H    0.000552  -0.002436   0.336588
 Mulliken atomic charges:
              1
     1  C   -0.239372
     2  C    0.225656
     3  C   -0.124723
     4  C   -0.134003
     5  C    0.188823
     6  C    0.023504
     7  O   -0.366587
     8  O   -0.380910
     9  O   -0.634972
    10  O   -0.508520
    11  O   -0.547637
    12  H    0.184325
    13  H    0.182640
    14  H    0.193571
    15  H    0.187539
    16  H    0.194684
    17  H    0.184865
    18  H    0.182096
    19  H    0.402761
    20  H    0.383028
    21  H    0.403231
 Sum of Mulliken atomic charges =   0.00000
 Mulliken charges with hydrogens summed into heavy atoms:
              1
     1  C    0.127593
     2  C    0.419227
     3  C    0.062815
     4  C    0.060682
     5  C    0.373688
     6  C    0.205601
     7  O   -0.366587
     8  O   -0.380910
     9  O   -0.232211
    10  O   -0.125492
    11  O   -0.144406
 Sum of Mulliken charges with hydrogens summed into heavy atoms =   0.00000
 Electronic spatial extent (au):  <R**2>=           1366.1484
 Charge=              0.0000 electrons
 Dipole moment (field-independent basis, Debye):
    X=              3.0532    Y=              4.6126    Z=             -0.3591  Tot=              5.5432
 Quadrupole moment (field-independent basis, Debye-Ang):
   XX=            -72.1916   YY=            -56.9734   ZZ=            -67.4928
   XY=              2.4275   XZ=              4.2772   YZ=             -2.7563
 Traceless Quadrupole moment (field-independent basis, Debye-Ang):
   XX=             -6.6390   YY=              8.5792   ZZ=             -1.9402
   XY=              2.4275   XZ=              4.2772   YZ=             -2.7563
 Octapole moment (field-independent basis, Debye-Ang**2):
  XXX=              6.7502  YYY=             22.3612  ZZZ=             -6.8312  XYY=              7.1862
  XXY=             11.1762  XXZ=            -13.3488  XZZ=              2.9326  YZZ=             10.9527
  YYZ=             -7.7145  XYZ=             10.9752
 Hexadecapole moment (field-independent basis, Debye-Ang**3):
 XXXX=           -825.1129 YYYY=           -438.1837 ZZZZ=           -349.3871 XXXY=             27.9882
 XXXZ=             27.6207 YYYX=            -25.4631 YYYZ=            -38.3174 ZZZX=             31.1629
 ZZZY=            -10.3046 XXYY=           -232.4665 XXZZ=           -226.6030 YYZZ=           -128.3861
 XXYZ=              1.5882 YYXZ=             -9.5866 ZZXY=             -5.0829
 N-N= 7.367185903443D+02 E-N=-2.903255506021D+03  KE= 6.052127727412D+02
 1\1\GINC-COMPUTE-8-20\SP\RmPW1PW91\6-31+G(d,p)\C6H10O5\MMARCARINO.IQUI
 R\12-Apr-2019\0\\# mpw1pw91/6-31+g** nmr scrf=(pcm,solvent=water)\\com
 ment\\0,1\C,0,2.030654,0.617152,0.738378\C,0,1.038222,1.099544,-0.3305
 38\C,0,0.998249,-1.118337,-0.373069\C,0,-0.839147,-0.01367,0.946633\C,
 0,-0.452449,-1.263185,0.124641\C,0,-0.402072,1.267613,0.197576\O,0,1.0
 67542,-0.008408,-1.250354\O,0,1.870985,-0.817037,0.715943\O,0,-1.31727
 6,1.429936,-0.890679\O,0,-2.223012,-0.013017,1.244611\O,0,-1.340669,-1
 .429619,-0.979721\H,0,1.815652,0.997429,1.741867\H,0,3.061145,0.871227
 ,0.469838\H,0,1.374202,1.989554,-0.867584\H,0,1.350113,-2.007374,-0.90
 2074\H,0,-0.317805,-0.046156,1.906699\H,0,-0.554588,-2.160547,0.742047
 \H,0,-0.454216,2.132069,0.874191\H,0,-1.072355,2.228418,-1.386246\H,0,
 -2.663616,-0.213614,0.39963\H,0,-1.239839,-0.620552,-1.518489\\Version
 =EM64L-G09RevC.01\State=1-A\HF=-610.65296\RMSD=5.897e-09\Dipole=1.2012
 294,1.8147339,-0.1412627\Quadrupole=-4.9359372,6.3784156,-1.4424784,1.
 8048225,3.1800293,-2.0492701\PG=C01 [X(C6H10O5)]\\@


 REALITY IS FOR PEOPLE WHO CAN'T FACE SCIENCE FICTION.
 Job cpu time:  0 days  0 hours 20 minutes 56.5 seconds.
 File lengths (MBytes):  RWF=     82 Int=      0 D2E=      0 Chk=      5 Scr=      1
 Normal termination of Gaussian 09 at Fri Apr 12 11:27:34 2019.
