 Entering Gaussian System, Link 0=g09
 Input=/home/mmarcarino.iquir/NMR/04_RRR_Levo03_OPTB_nmr.gjc
 Output=/home/mmarcarino.iquir/NMR/04_RRR_Levo03_OPTB_nmr.log
 Initial command:
 /share/apps/Gaussian09/EM64T.SSE4.2-enabled/g09/l1.exe /tmp/Gau-64048.inp -scrdir=/tmp/
 Entering Link 1 = /share/apps/Gaussian09/EM64T.SSE4.2-enabled/g09/l1.exe PID=     64049.
  
 Copyright (c) 1988,1990,1992,1993,1995,1998,2003,2009,2011,
            Gaussian, Inc.  All Rights Reserved.
  
 This is part of the Gaussian(R) 09 program.  It is based on
 the Gaussian(R) 03 system (copyright 2003, Gaussian, Inc.),
 the Gaussian(R) 98 system (copyright 1998, Gaussian, Inc.),
 the Gaussian(R) 94 system (copyright 1995, Gaussian, Inc.),
 the Gaussian 92(TM) system (copyright 1992, Gaussian, Inc.),
 the Gaussian 90(TM) system (copyright 1990, Gaussian, Inc.),
 the Gaussian 88(TM) system (copyright 1988, Gaussian, Inc.),
 the Gaussian 86(TM) system (copyright 1986, Carnegie Mellon
 University), and the Gaussian 82(TM) system (copyright 1983,
 Carnegie Mellon University). Gaussian is a federally registered
 trademark of Gaussian, Inc.
  
 This software contains proprietary and confidential information,
 including trade secrets, belonging to Gaussian, Inc.
  
 This software is provided under written license and may be
 used, copied, transmitted, or stored only in accord with that
 written license.
  
 The following legend is applicable only to US Government
 contracts under FAR:
  
                    RESTRICTED RIGHTS LEGEND
  
 Use, reproduction and disclosure by the US Government is
 subject to restrictions as set forth in subparagraphs (a)
 and (c) of the Commercial Computer Software - Restricted
 Rights clause in FAR 52.227-19.
  
 Gaussian, Inc.
 340 Quinnipiac St., Bldg. 40, Wallingford CT 06492
  
  
 ---------------------------------------------------------------
 Warning -- This program may not be used in any manner that
 competes with the business of Gaussian, Inc. or will provide
 assistance to any competitor of Gaussian, Inc.  The licensee
 of this program is prohibited from giving any competitor of
 Gaussian, Inc. access to this program.  By using this program,
 the user acknowledges that Gaussian, Inc. is engaged in the
 business of creating and licensing software in the field of
 computational chemistry and represents and warrants to the
 licensee that it is not a competitor of Gaussian, Inc. and that
 it will not use this program in any manner prohibited above.
 ---------------------------------------------------------------
  

 Cite this work as:
 Gaussian 09, Revision C.01,
 M. J. Frisch, G. W. Trucks, H. B. Schlegel, G. E. Scuseria, 
 M. A. Robb, J. R. Cheeseman, G. Scalmani, V. Barone, B. Mennucci, 
 G. A. Petersson, H. Nakatsuji, M. Caricato, X. Li, H. P. Hratchian, 
 A. F. Izmaylov, J. Bloino, G. Zheng, J. L. Sonnenberg, M. Hada, 
 M. Ehara, K. Toyota, R. Fukuda, J. Hasegawa, M. Ishida, T. Nakajima, 
 Y. Honda, O. Kitao, H. Nakai, T. Vreven, J. A. Montgomery, Jr., 
 J. E. Peralta, F. Ogliaro, M. Bearpark, J. J. Heyd, E. Brothers, 
 K. N. Kudin, V. N. Staroverov, T. Keith, R. Kobayashi, J. Normand, 
 K. Raghavachari, A. Rendell, J. C. Burant, S. S. Iyengar, J. Tomasi, 
 M. Cossi, N. Rega, J. M. Millam, M. Klene, J. E. Knox, J. B. Cross, 
 V. Bakken, C. Adamo, J. Jaramillo, R. Gomperts, R. E. Stratmann, 
 O. Yazyev, A. J. Austin, R. Cammi, C. Pomelli, J. W. Ochterski, 
 R. L. Martin, K. Morokuma, V. G. Zakrzewski, G. A. Voth, 
 P. Salvador, J. J. Dannenberg, S. Dapprich, A. D. Daniels, 
 O. Farkas, J. B. Foresman, J. V. Ortiz, J. Cioslowski, 
 and D. J. Fox, Gaussian, Inc., Wallingford CT, 2010.
 
 ******************************************
 Gaussian 09:  EM64L-G09RevC.01 23-Sep-2011
                12-Apr-2019 
 ******************************************
 %nprocshared=4
 Will use up to    4 processors via shared memory.
 ------------------------------------------------
 # mpw1pw91/6-31+g** nmr scrf=(pcm,solvent=water)
 ------------------------------------------------
 1/38=1/1;
 2/12=2,17=6,18=5,40=1/2;
 3/5=1,6=6,7=111,11=2,16=1,25=1,30=1,70=2201,72=1,74=-7/1,2,8,3;
 4//1;
 5/5=2,38=5,53=1/2;
 8/6=1,10=90,11=11/1;
 10/13=100,45=16/2;
 6/7=2,8=2,9=2,10=2,28=1/1;
 99/9=1/99;
 -------
 comment
 -------
 Charge =  0 Multiplicity = 1
 Symbolic Z-Matrix:
 6                    -2.0376   -0.68876   0.67314 
 6                    -1.04693  -1.0775   -0.4332 
 6                    -0.99015   1.13503  -0.26856 
 6                     0.83921  -0.09322   0.9425 
 6                     0.45788   1.24014   0.26053 
 6                     0.39411  -1.28571   0.06315 
 8                    -1.06431   0.11481  -1.24541 
 8                    -1.8671    0.74073   0.78684 
 8                     1.28562  -1.42766  -1.04426 
 8                     2.22275  -0.17357   1.23006 
 8                     1.37007   1.4341   -0.82331 
 1                    -1.82855  -1.16214   1.63747 
 1                    -3.06959  -0.9071    0.37983 
 1                    -1.37567  -1.91255  -1.05381 
 1                    -1.34414   2.06953  -0.71412 
 1                     0.32078  -0.13537   1.90392 
 1                     0.53307   2.06439   0.98219 
 1                     0.46944  -2.21566   0.63577 
 1                     1.2006   -0.59979  -1.55608 
 1                     2.6445   -0.37416   0.37517 
 1                     1.17413   2.2857   -1.24705 
 
                          Input orientation:                          
 ---------------------------------------------------------------------
 Center     Atomic      Atomic             Coordinates (Angstroms)
 Number     Number       Type             X           Y           Z
 ---------------------------------------------------------------------
      1          6           0       -2.037599   -0.688757    0.673142
      2          6           0       -1.046925   -1.077501   -0.433198
      3          6           0       -0.990150    1.135029   -0.268560
      4          6           0        0.839212   -0.093215    0.942497
      5          6           0        0.457884    1.240140    0.260528
      6          6           0        0.394105   -1.285708    0.063145
      7          8           0       -1.064308    0.114805   -1.245411
      8          8           0       -1.867097    0.740733    0.786835
      9          8           0        1.285618   -1.427656   -1.044257
     10          8           0        2.222749   -0.173573    1.230064
     11          8           0        1.370070    1.434096   -0.823307
     12          1           0       -1.828548   -1.162145    1.637467
     13          1           0       -3.069585   -0.907101    0.379827
     14          1           0       -1.375667   -1.912551   -1.053812
     15          1           0       -1.344138    2.069533   -0.714115
     16          1           0        0.320783   -0.135374    1.903915
     17          1           0        0.533073    2.064391    0.982194
     18          1           0        0.469444   -2.215664    0.635773
     19          1           0        1.200597   -0.599793   -1.556082
     20          1           0        2.644500   -0.374157    0.375165
     21          1           0        1.174132    2.285695   -1.247047
 ---------------------------------------------------------------------
                    Distance matrix (angstroms):
                    1          2          3          4          5
     1  C    0.000000
     2  C    1.535104   0.000000
     3  C    2.304376   2.219373   0.000000
     4  C    2.950129   2.533549   2.514321   0.000000
     5  C    3.180932   2.849064   1.545246   1.545422   0.000000
     6  C    2.577136   1.538270   2.808230   1.547068   2.534351
     7  O    2.296487   1.442770   1.414424   2.907508   2.418946
     8  O    1.444105   2.338191   1.427713   2.836161   2.435558
     9  O    3.813031   2.436546   3.513998   2.434585   3.082976
    10  O    4.327371   3.778134   3.779025   1.415389   2.460352
    11  O    4.284632   3.507445   2.442913   2.394275   1.429825
    12  H    1.094405   2.214893   3.100461   2.956778   3.590920
    13  H    1.094853   2.186595   2.985758   4.032084   4.131333
    14  H    2.217701   1.091119   3.170645   3.492982   3.876707
    15  H    3.164417   3.173495   1.094132   3.491255   2.210227
    16  H    2.717168   2.867111   2.837625   1.093101   2.147453
    17  H    3.779377   3.790938   2.179061   2.179578   1.098110
    18  H    2.935661   2.176577   3.765020   2.176143   3.476136
    19  H    3.932336   2.557426   3.076799   2.574901   2.690176
    20  H    4.702107   3.843795   3.987820   1.913076   2.720365
    21  H    4.780137   4.111755   2.639240   3.250460   1.969512
                    6          7          8          9         10
     6  C    0.000000
     7  O    2.408469   0.000000
     8  O    3.121414   2.272945   0.000000
     9  O    1.428735   2.818120   4.241983   0.000000
    10  O    2.437721   4.125031   4.214172   2.761064   0.000000
    11  O    3.022522   2.800874   3.681380   2.871511   2.743719
    12  H    2.726526   3.244326   2.084708   4.118273   4.190019
    13  H    3.498682   2.776117   2.080142   4.611593   5.410154
    14  H    2.184632   2.060055   3.266405   2.705116   4.603122
    15  H    3.857883   2.044882   2.071725   4.388045   4.640478
    16  H    2.171884   3.449539   2.608112   3.360449   2.018170
    17  H    3.476654   3.363738   2.747918   4.106972   2.815125
    18  H    1.094713   3.364868   3.771277   2.027214   2.756337
    19  H    1.934633   2.395195   4.086198   0.977011   2.998177
    20  H    2.447970   4.076838   4.665507   2.229614   0.974146
    21  H    3.883293   3.118233   3.971481   3.720555   3.644678
                   11         12         13         14         15
    11  O    0.000000
    12  H    4.798649   0.000000
    13  H    5.161325   1.785183   0.000000
    14  H    4.335003   2.830405   2.436310   0.000000
    15  H    2.789736   4.025957   3.610295   3.996671   0.000000
    16  H    3.316923   2.396847   3.796446   3.845055   3.806266
    17  H    2.087503   4.051811   4.708689   4.858464   2.530101
    18  H    4.032467   2.719202   3.781874   2.520121   4.845017
    19  H    2.168498   4.437422   4.698578   2.934748   3.782841
    20  H    2.516006   4.714074   5.738887   4.535457   4.802852
    21  H    0.971168   5.405933   5.554260   4.915698   2.583104
                   16         17         18         19         20
    16  H    0.000000
    17  H    2.394494   0.000000
    18  H    2.440879   4.294523   0.000000
    19  H    3.600186   3.739827   2.819548   0.000000
    20  H    2.791730   3.282244   2.861806   2.421876   0.000000
    21  H    4.064276   2.330117   4.929891   2.902110   3.445050
                   21
    21  H    0.000000
 Stoichiometry    C6H10O5
 Framework group  C1[X(C6H10O5)]
 Deg. of freedom    57
 Full point group                 C1      NOp   1
 Largest Abelian subgroup         C1      NOp   1
 Largest concise Abelian subgroup C1      NOp   1
                         Standard orientation:                         
 ---------------------------------------------------------------------
 Center     Atomic      Atomic             Coordinates (Angstroms)
 Number     Number       Type             X           Y           Z
 ---------------------------------------------------------------------
      1          6           0       -2.037599   -0.688757    0.673142
      2          6           0       -1.046925   -1.077501   -0.433198
      3          6           0       -0.990150    1.135029   -0.268560
      4          6           0        0.839212   -0.093215    0.942497
      5          6           0        0.457884    1.240140    0.260528
      6          6           0        0.394105   -1.285708    0.063145
      7          8           0       -1.064308    0.114805   -1.245411
      8          8           0       -1.867097    0.740733    0.786835
      9          8           0        1.285618   -1.427656   -1.044257
     10          8           0        2.222749   -0.173573    1.230064
     11          8           0        1.370070    1.434096   -0.823307
     12          1           0       -1.828548   -1.162145    1.637467
     13          1           0       -3.069585   -0.907101    0.379827
     14          1           0       -1.375667   -1.912551   -1.053812
     15          1           0       -1.344138    2.069533   -0.714115
     16          1           0        0.320783   -0.135374    1.903915
     17          1           0        0.533073    2.064391    0.982194
     18          1           0        0.469444   -2.215664    0.635773
     19          1           0        1.200597   -0.599793   -1.556082
     20          1           0        2.644500   -0.374157    0.375165
     21          1           0        1.174132    2.285695   -1.247047
 ---------------------------------------------------------------------
 Rotational constants (GHZ):      1.7169725      1.1358580      1.0149303
 Standard basis: 6-31+G(d,p) (6D, 7F)
 There are   259 symmetry adapted basis functions of A   symmetry.
 Integral buffers will be    131072 words long.
 Raffenetti 2 integral format.
 Two-electron integral symmetry is turned on.
   259 basis functions,   422 primitive gaussians,   259 cartesian basis functions
    43 alpha electrons       43 beta electrons
       nuclear repulsion energy       736.5784385573 Hartrees.
 NAtoms=   21 NActive=   21 NUniq=   21 SFac= 1.00D+00 NAtFMM=   60 NAOKFM=F Big=F
 ------------------------------------------------------------------------------
 Polarizable Continuum Model (PCM)
 =================================
 Model                : PCM.
 Atomic radii         : UFF (Universal Force Field).
 Polarization charges : Total charges.
 Charge compensation  : None.
 Solution method      : Matrix inversion.
 Cavity type          : Scaled VdW (van der Waals Surface) (Alpha=1.100).
 Cavity algorithm     : GePol (No added spheres)
                        Default sphere list used, NSphG=   21.
                        Lebedev-Laikov grids with approx.  5.0 points / Ang**2.
                        Smoothing algorithm: Karplus/York (Gamma=1.0000).
                        Polarization charges: spherical gaussians, with
                                              point-specific exponents (IZeta= 3).
                        Self-potential: point-specific (ISelfS= 7).
                        Self-field    : sphere-specific E.n sum rule (ISelfD= 2).
 Solvent              : Water, Eps=  78.355300 Eps(inf)=   1.777849
 ------------------------------------------------------------------------------
 One-electron integrals computed using PRISM.
 NBasis=   259 RedAO= T  NBF=   259
 NBsUse=   259 1.00D-06 NBFU=   259
 Harris functional with IExCor=  908 diagonalized for initial guess.
 ExpMin= 4.38D-02 ExpMax= 5.48D+03 ExpMxC= 8.25D+02 IAcc=2 IRadAn=         4 AccDes= 0.00D+00
 HarFok:  IExCor=  908 AccDes= 0.00D+00 IRadAn=         4 IDoV= 1
 ScaDFX=  1.000000  1.000000  1.000000  1.000000
 FoFCou: FMM=F IPFlag=           0 FMFlag=      100000 FMFlg1=           0
         NFxFlg=           0 DoJE=T BraDBF=F KetDBF=T FulRan=T
         Omega=  0.000000  0.000000  1.000000  0.000000  0.000000 ICntrl=     500 IOpCl=  0
         NMat0=    1 NMatS0=    1 NMatT0=    0 NMatD0=    1 NMtDS0=    0 NMtDT0=    0
         I1Cent=           4 NGrid=           0.
 Petite list used in FoFCou.
 Initial guess orbital symmetries:
       Occupied  (A) (A) (A) (A) (A) (A) (A) (A) (A) (A) (A) (A)
                 (A) (A) (A) (A) (A) (A) (A) (A) (A) (A) (A) (A)
                 (A) (A) (A) (A) (A) (A) (A) (A) (A) (A) (A) (A)
                 (A) (A) (A) (A) (A) (A) (A)
       Virtual   (A) (A) (A) (A) (A) (A) (A) (A) (A) (A) (A) (A)
                 (A) (A) (A) (A) (A) (A) (A) (A) (A) (A) (A) (A)
                 (A) (A) (A) (A) (A) (A) (A) (A) (A) (A) (A) (A)
                 (A) (A) (A) (A) (A) (A) (A) (A) (A) (A) (A) (A)
                 (A) (A) (A) (A) (A) (A) (A) (A) (A) (A) (A) (A)
                 (A) (A) (A) (A) (A) (A) (A) (A) (A) (A) (A) (A)
                 (A) (A) (A) (A) (A) (A) (A) (A) (A) (A) (A) (A)
                 (A) (A) (A) (A) (A) (A) (A) (A) (A) (A) (A) (A)
                 (A) (A) (A) (A) (A) (A) (A) (A) (A) (A) (A) (A)
                 (A) (A) (A) (A) (A) (A) (A) (A) (A) (A) (A) (A)
                 (A) (A) (A) (A) (A) (A) (A) (A) (A) (A) (A) (A)
                 (A) (A) (A) (A) (A) (A) (A) (A) (A) (A) (A) (A)
                 (A) (A) (A) (A) (A) (A) (A) (A) (A) (A) (A) (A)
                 (A) (A) (A) (A) (A) (A) (A) (A) (A) (A) (A) (A)
                 (A) (A) (A) (A) (A) (A) (A) (A) (A) (A) (A) (A)
                 (A) (A) (A) (A) (A) (A) (A) (A) (A) (A) (A) (A)
                 (A) (A) (A) (A) (A) (A) (A) (A) (A) (A) (A) (A)
                 (A) (A) (A) (A) (A) (A) (A) (A) (A) (A) (A) (A)
 The electronic state of the initial guess is 1-A.
 Requested convergence on RMS density matrix=1.00D-08 within 128 cycles.
 Requested convergence on MAX density matrix=1.00D-06.
 Requested convergence on             energy=1.00D-06.
 No special actions if energy rises.
 Error on total polarization charges =  0.01144
 SCF Done:  E(RmPW1PW91) =  -610.652721367     A.U. after   12 cycles
             Convg  =    0.6173D-08             -V/T =  2.0090
 Range of M.O.s used for correlation:     1   259
 NBasis=   259 NAE=    43 NBE=    43 NFC=     0 NFV=     0
 NROrb=    259 NOA=    43 NOB=    43 NVA=   216 NVB=   216

 **** Warning!!: The largest alpha MO coefficient is  0.55294547D+02

 NEqPCM:  Using equilibrium solvation (IEInf=0, Eps=  78.3553, EpsInf=   1.7778)
          Differentiating once with respect to magnetic field using GIAOs.
          Electric field/nuclear overlap derivatives assumed to be zero.
 FoFCou: FMM=F IPFlag=           0 FMFlag=    10101102 FMFlg1=           0
         NFxFlg=    40000000 DoJE=F BraDBF=F KetDBF=T FulRan=T
         Omega=  0.000000  0.000000  1.000000  0.000000  0.000000 ICntrl=    6100 IOpCl=  0
         NMat0=    1 NMatS0=    1 NMatT0=    0 NMatD0=    1 NMtDS0=    0 NMtDT0=    0
         I1Cent=           7 NGrid=        1521.
 Symmetry not used in FoFCou.
          There are     3 degrees of freedom in the 1st order CPHF.  IDoFFX=0.
      3 vectors produced by pass  0 Test12= 3.10D-13 3.33D-08 XBig12= 1.96D+01 8.48D-01.
 AX will form     3 AO Fock derivatives at one time.
      3 vectors produced by pass  1 Test12= 3.10D-13 3.33D-08 XBig12= 4.54D-02 2.55D-02.
      3 vectors produced by pass  2 Test12= 3.10D-13 3.33D-08 XBig12= 8.65D-05 1.48D-03.
      3 vectors produced by pass  3 Test12= 3.10D-13 3.33D-08 XBig12= 4.17D-07 1.10D-04.
      3 vectors produced by pass  4 Test12= 3.10D-13 3.33D-08 XBig12= 1.31D-09 5.58D-06.
      3 vectors produced by pass  5 Test12= 3.10D-13 3.33D-08 XBig12= 4.24D-12 3.84D-07.
 Inverted reduced A of dimension    18 with in-core refinement.
 Calculating GIAO nuclear magnetic shielding tensors.
 SCF GIAO Magnetic shielding tensor (ppm):
      1  C    Isotropic =   130.0268   Anisotropy =    62.0472
   XX=   110.9302   YX=     9.2343   ZX=   -10.2326
   XY=     3.6867   YY=   169.9584   ZY=    11.2413
   XZ=    -5.2552   YZ=     3.8998   ZZ=   109.1918
   Eigenvalues:   100.8362   117.8526   171.3916
      2  C    Isotropic =   117.0053   Anisotropy =    47.1598
   XX=   106.6450   YX=    -4.9702   ZX=   -13.6461
   XY=    -6.5448   YY=   132.6967   ZY=   -17.9041
   XZ=    -0.5838   YZ=   -30.1780   ZZ=   111.6743
   Eigenvalues:    90.7315   111.8393   148.4452
      3  C    Isotropic =    93.1321   Anisotropy =    32.2942
   XX=    91.3948   YX=    16.8921   ZX=   -22.4341
   XY=     9.5919   YY=    87.6019   ZY=     2.2373
   XZ=   -13.9805   YZ=    19.5274   ZZ=   100.3997
   Eigenvalues:    64.4550   100.2798   114.6616
      4  C    Isotropic =   130.4213   Anisotropy =    51.3626
   XX=   163.8848   YX=    -1.7528   ZX=    11.9244
   XY=    -0.1204   YY=   119.0761   ZY=    -3.0631
   XZ=     1.0265   YZ=    -2.3500   ZZ=   108.3031
   Eigenvalues:   107.0051   119.5958   164.6631
      5  C    Isotropic =   121.2236   Anisotropy =    35.9589
   XX=   128.4695   YX=     3.3225   ZX=   -24.0066
   XY=     3.3513   YY=   106.4378   ZY=    -5.3273
   XZ=    -6.9723   YZ=    -6.3334   ZZ=   128.7634
   Eigenvalues:   104.9919   113.4827   145.1962
      6  C    Isotropic =   121.7798   Anisotropy =    40.2205
   XX=   127.2743   YX=    -0.2239   ZX=   -25.6069
   XY=     2.8193   YY=   102.7789   ZY=     1.7247
   XZ=    -7.8720   YZ=     5.7886   ZZ=   135.2860
   Eigenvalues:   101.7702   114.9756   148.5934
      7  O    Isotropic =   258.2213   Anisotropy =    57.3771
   XX=   221.2830   YX=    34.3166   ZX=   -30.5138
   XY=    24.4491   YY=   282.2248   ZY=    22.3282
   XZ=   -56.5118   YZ=    12.9039   ZZ=   271.1560
   Eigenvalues:   184.1081   294.0831   296.4727
      8  O    Isotropic =   267.1941   Anisotropy =   113.3807
   XX=   232.1767   YX=    19.1718   ZX=   -70.0814
   XY=    21.8064   YY=   278.6425   ZY=    18.2538
   XZ=   -69.9546   YZ=    50.7802   ZZ=   290.7630
   Eigenvalues:   172.9641   285.8369   342.7812
      9  O    Isotropic =   299.4893   Anisotropy =    56.2540
   XX=   259.4919   YX=   -11.0470   ZX=    17.6369
   XY=    -6.2731   YY=   323.2760   ZY=   -19.1635
   XZ=   -17.6505   YZ=   -13.7887   ZZ=   315.6999
   Eigenvalues:   258.2477   303.2281   336.9920
     10  O    Isotropic =   306.0377   Anisotropy =    32.7642
   XX=   300.7667   YX=    -3.8361   ZX=    17.6147
   XY=   -13.2941   YY=   311.6299   ZY=    11.5794
   XZ=    30.9490   YZ=     8.5220   ZZ=   305.7166
   Eigenvalues:   274.2420   315.9906   327.8806
     11  O    Isotropic =   299.6799   Anisotropy =    55.1053
   XX=   270.4454   YX=    -3.1673   ZX=    17.8351
   XY=     2.4292   YY=   320.5140   ZY=   -21.9975
   XZ=   -11.1601   YZ=   -20.2917   ZZ=   308.0805
   Eigenvalues:   270.0948   292.5282   336.4168
     12  H    Isotropic =    27.7040   Anisotropy =     7.4686
   XX=    26.2557   YX=     1.1775   ZX=    -1.0941
   XY=     1.2025   YY=    28.1787   ZY=    -4.4348
   XZ=    -2.3695   YZ=    -2.7113   ZZ=    28.6775
   Eigenvalues:    24.7414    25.6876    32.6830
     13  H    Isotropic =    27.6573   Anisotropy =    11.4514
   XX=    32.7823   YX=     3.8702   ZX=    -0.6053
   XY=     4.9250   YY=    27.5082   ZY=     1.1555
   XZ=     0.5058   YZ=     0.9810   ZZ=    22.6813
   Eigenvalues:    22.3252    25.3550    35.2915
     14  H    Isotropic =    26.9394   Anisotropy =     8.6722
   XX=    25.7393   YX=     2.8830   ZX=     2.0545
   XY=     2.3509   YY=    30.6749   ZY=     3.2645
   XZ=     0.8273   YZ=     1.5004   ZZ=    24.4040
   Eigenvalues:    23.3833    24.7140    32.7209
     15  H    Isotropic =    26.1643   Anisotropy =     7.9018
   XX=    24.6122   YX=    -1.9340   ZX=     0.2611
   XY=    -2.4394   YY=    30.1821   ZY=    -2.1251
   XZ=    -0.1047   YZ=    -1.9454   ZZ=    23.6987
   Eigenvalues:    22.8726    24.1883    31.4322
     16  H    Isotropic =    27.8574   Anisotropy =     4.5341
   XX=    30.2461   YX=    -0.5392   ZX=    -1.2482
   XY=    -0.1620   YY=    22.6571   ZY=    -0.8370
   XZ=     0.5790   YZ=    -0.5882   ZZ=    30.6689
   Eigenvalues:    22.5754    30.1165    30.8801
     17  H    Isotropic =    27.6091   Anisotropy =     6.7221
   XX=    25.4431   YX=    -0.0867   ZX=    -2.4260
   XY=     0.9571   YY=    29.0877   ZY=     2.9738
   XZ=    -1.3610   YZ=     3.4968   ZZ=    28.2964
   Eigenvalues:    23.6787    27.0580    32.0905
     18  H    Isotropic =    27.8934   Anisotropy =     7.2723
   XX=    25.5620   YX=     0.7949   ZX=    -1.9625
   XY=    -0.8991   YY=    30.3473   ZY=    -2.8335
   XZ=    -1.1037   YZ=    -3.8569   ZZ=    27.7710
   Eigenvalues:    24.1846    26.7541    32.7416
     19  H    Isotropic =    28.6548   Anisotropy =    15.7309
   XX=    22.9646   YX=    -2.5406   ZX=    -4.0481
   XY=    -0.8955   YY=    35.1180   ZY=    -6.7698
   XZ=    -2.0640   YZ=    -6.6916   ZZ=    27.8817
   Eigenvalues:    19.8782    26.9441    39.1420
     20  H    Isotropic =    28.4767   Anisotropy =    14.5220
   XX=    31.2737   YX=    -2.0510   ZX=    -4.0272
   XY=    -1.5151   YY=    20.9696   ZY=     4.4454
   XZ=    -5.5097   YZ=     3.6495   ZZ=    33.1868
   Eigenvalues:    19.7392    27.5330    38.1580
     21  H    Isotropic =    29.9034   Anisotropy =    20.8703
   XX=    24.2437   YX=    -0.4132   ZX=    -2.3997
   XY=    -0.2910   YY=    38.1394   ZY=    -9.6607
   XZ=    -1.2110   YZ=    -9.6472   ZZ=    27.3272
   Eigenvalues:    20.7919    25.1013    43.8169
 End of Minotr Frequency-dependent properties file   721 does not exist.
 End of Minotr Frequency-dependent properties file   722 does not exist.

 **********************************************************************

            Population analysis using the SCF density.

 **********************************************************************

 Orbital symmetries:
       Occupied  (A) (A) (A) (A) (A) (A) (A) (A) (A) (A) (A) (A)
                 (A) (A) (A) (A) (A) (A) (A) (A) (A) (A) (A) (A)
                 (A) (A) (A) (A) (A) (A) (A) (A) (A) (A) (A) (A)
                 (A) (A) (A) (A) (A) (A) (A)
       Virtual   (A) (A) (A) (A) (A) (A) (A) (A) (A) (A) (A) (A)
                 (A) (A) (A) (A) (A) (A) (A) (A) (A) (A) (A) (A)
                 (A) (A) (A) (A) (A) (A) (A) (A) (A) (A) (A) (A)
                 (A) (A) (A) (A) (A) (A) (A) (A) (A) (A) (A) (A)
                 (A) (A) (A) (A) (A) (A) (A) (A) (A) (A) (A) (A)
                 (A) (A) (A) (A) (A) (A) (A) (A) (A) (A) (A) (A)
                 (A) (A) (A) (A) (A) (A) (A) (A) (A) (A) (A) (A)
                 (A) (A) (A) (A) (A) (A) (A) (A) (A) (A) (A) (A)
                 (A) (A) (A) (A) (A) (A) (A) (A) (A) (A) (A) (A)
                 (A) (A) (A) (A) (A) (A) (A) (A) (A) (A) (A) (A)
                 (A) (A) (A) (A) (A) (A) (A) (A) (A) (A) (A) (A)
                 (A) (A) (A) (A) (A) (A) (A) (A) (A) (A) (A) (A)
                 (A) (A) (A) (A) (A) (A) (A) (A) (A) (A) (A) (A)
                 (A) (A) (A) (A) (A) (A) (A) (A) (A) (A) (A) (A)
                 (A) (A) (A) (A) (A) (A) (A) (A) (A) (A) (A) (A)
                 (A) (A) (A) (A) (A) (A) (A) (A) (A) (A) (A) (A)
                 (A) (A) (A) (A) (A) (A) (A) (A) (A) (A) (A) (A)
                 (A) (A) (A) (A) (A) (A) (A) (A) (A) (A) (A) (A)
 The electronic state is 1-A.
 Alpha  occ. eigenvalues --  -19.28050 -19.27275 -19.27162 -19.26253 -19.25932
 Alpha  occ. eigenvalues --  -10.36198 -10.31998 -10.31459 -10.31440 -10.31331
 Alpha  occ. eigenvalues --  -10.31085  -1.14718  -1.08892  -1.06759  -1.05536
 Alpha  occ. eigenvalues --   -1.04053  -0.82516  -0.81060  -0.70556  -0.67941
 Alpha  occ. eigenvalues --   -0.65592  -0.61216  -0.58409  -0.55792  -0.54222
 Alpha  occ. eigenvalues --   -0.52108  -0.50085  -0.48405  -0.48097  -0.46734
 Alpha  occ. eigenvalues --   -0.45095  -0.43906  -0.41596  -0.40995  -0.39112
 Alpha  occ. eigenvalues --   -0.38350  -0.36673  -0.35738  -0.33488  -0.33253
 Alpha  occ. eigenvalues --   -0.30377  -0.28793  -0.28161
 Alpha virt. eigenvalues --    0.00369   0.01539   0.02362   0.02624   0.03743
 Alpha virt. eigenvalues --    0.04724   0.05050   0.05416   0.05935   0.08027
 Alpha virt. eigenvalues --    0.08620   0.09543   0.10046   0.10291   0.11294
 Alpha virt. eigenvalues --    0.12399   0.13249   0.13563   0.13880   0.14433
 Alpha virt. eigenvalues --    0.15381   0.15658   0.16222   0.17004   0.17724
 Alpha virt. eigenvalues --    0.17944   0.19030   0.19352   0.20012   0.20780
 Alpha virt. eigenvalues --    0.20975   0.21634   0.22400   0.23301   0.23529
 Alpha virt. eigenvalues --    0.24449   0.25003   0.26003   0.26682   0.28300
 Alpha virt. eigenvalues --    0.28503   0.29274   0.29677   0.30014   0.30995
 Alpha virt. eigenvalues --    0.31422   0.31736   0.32273   0.33741   0.33803
 Alpha virt. eigenvalues --    0.34419   0.35146   0.36023   0.36484   0.36971
 Alpha virt. eigenvalues --    0.37786   0.38192   0.38526   0.39564   0.40246
 Alpha virt. eigenvalues --    0.42449   0.43128   0.44361   0.46238   0.47541
 Alpha virt. eigenvalues --    0.48974   0.64086   0.66028   0.66907   0.68255
 Alpha virt. eigenvalues --    0.70582   0.71282   0.73407   0.76202   0.78166
 Alpha virt. eigenvalues --    0.79238   0.81840   0.82632   0.84075   0.86139
 Alpha virt. eigenvalues --    0.87592   0.92869   0.95537   0.96835   1.00341
 Alpha virt. eigenvalues --    1.03077   1.03314   1.05145   1.06725   1.07940
 Alpha virt. eigenvalues --    1.09012   1.10046   1.11412   1.12793   1.13733
 Alpha virt. eigenvalues --    1.18738   1.20027   1.25081   1.26607   1.27039
 Alpha virt. eigenvalues --    1.27909   1.29988   1.30637   1.31599   1.33019
 Alpha virt. eigenvalues --    1.35524   1.35851   1.39999   1.41304   1.42957
 Alpha virt. eigenvalues --    1.44084   1.45342   1.47326   1.47812   1.50894
 Alpha virt. eigenvalues --    1.53996   1.55870   1.57041   1.59408   1.60885
 Alpha virt. eigenvalues --    1.61629   1.63847   1.65440   1.68881   1.70163
 Alpha virt. eigenvalues --    1.71358   1.73498   1.73964   1.76015   1.77998
 Alpha virt. eigenvalues --    1.81934   1.83316   1.84447   1.84891   1.86818
 Alpha virt. eigenvalues --    1.89331   1.92609   1.95142   1.97860   1.99550
 Alpha virt. eigenvalues --    2.02025   2.03742   2.05956   2.07886   2.09940
 Alpha virt. eigenvalues --    2.11389   2.13778   2.13951   2.16923   2.18626
 Alpha virt. eigenvalues --    2.18964   2.20515   2.25166   2.26255   2.30866
 Alpha virt. eigenvalues --    2.31372   2.34552   2.37472   2.40291   2.41912
 Alpha virt. eigenvalues --    2.44272   2.47691   2.49580   2.51737   2.52399
 Alpha virt. eigenvalues --    2.54468   2.56860   2.58304   2.61514   2.63708
 Alpha virt. eigenvalues --    2.66033   2.67366   2.67449   2.69738   2.70315
 Alpha virt. eigenvalues --    2.73327   2.73939   2.76394   2.78899   2.82318
 Alpha virt. eigenvalues --    2.82582   2.86094   2.86764   2.89203   2.90675
 Alpha virt. eigenvalues --    2.94208   2.97791   2.98893   3.01208   3.03941
 Alpha virt. eigenvalues --    3.05665   3.09046   3.11098   3.14972   3.19796
 Alpha virt. eigenvalues --    3.35654   3.40533   3.45854   3.47157   3.48499
 Alpha virt. eigenvalues --    3.51167   3.53162   3.55780   3.61200   3.63005
 Alpha virt. eigenvalues --    4.27727   4.34447   4.43306   4.48431   4.51709
 Alpha virt. eigenvalues --    4.56894   4.63070   4.77872   4.84675   4.92322
 Alpha virt. eigenvalues --    5.07376
          Condensed to atoms (all electrons):
              1          2          3          4          5          6
     1  C    5.552505  -0.221689  -0.341149  -0.086544   0.097745   0.123335
     2  C   -0.221689   7.148928  -0.829919   0.188866   0.544123  -1.125015
     3  C   -0.341149  -0.829919   7.102767   0.039945  -1.439227   0.761598
     4  C   -0.086544   0.188866   0.039945   6.206060  -0.391994  -0.168016
     5  C    0.097745   0.544123  -1.439227  -0.391994   7.650624  -0.813759
     6  C    0.123335  -1.125015   0.761598  -0.168016  -0.813759   6.770146
     7  O   -0.016802   0.124578   0.311958  -0.078557  -0.119364  -0.071232
     8  O    0.189050  -0.111563   0.333521   0.062309  -0.222891  -0.031480
     9  O    0.006188  -0.081599  -0.064009  -0.108951   0.060530   0.282865
    10  O   -0.011473   0.016361   0.053507   0.365628  -0.146786  -0.145644
    11  O    0.015401  -0.088217   0.015127  -0.160474   0.083398   0.099223
    12  H    0.448687  -0.144561   0.014250  -0.032587   0.013647   0.060887
    13  H    0.386699  -0.000598  -0.011301   0.006184  -0.001411   0.001267
    14  H    0.023395   0.269247   0.017108   0.010282  -0.018685   0.044205
    15  H    0.010212   0.044092   0.304611   0.016303   0.025011  -0.028989
    16  H    0.011534  -0.017114  -0.003840   0.372890  -0.037463  -0.005970
    17  H    0.014762  -0.037500   0.050929  -0.030678   0.259410   0.047234
    18  H    0.020937   0.009333  -0.039411  -0.073896   0.070420   0.339463
    19  H    0.002418  -0.021641  -0.022949  -0.054770   0.071805   0.021522
    20  H    0.001881   0.005460  -0.002088   0.039192  -0.028896  -0.042559
    21  H   -0.000905   0.012158  -0.047962   0.023819   0.045817  -0.016485
              7          8          9         10         11         12
     1  C   -0.016802   0.189050   0.006188  -0.011473   0.015401   0.448687
     2  C    0.124578  -0.111563  -0.081599   0.016361  -0.088217  -0.144561
     3  C    0.311958   0.333521  -0.064009   0.053507   0.015127   0.014250
     4  C   -0.078557   0.062309  -0.108951   0.365628  -0.160474  -0.032587
     5  C   -0.119364  -0.222891   0.060530  -0.146786   0.083398   0.013647
     6  C   -0.071232  -0.031480   0.282865  -0.145644   0.099223   0.060887
     7  O    8.303542  -0.045930   0.000366  -0.002254   0.007509   0.011065
     8  O   -0.045930   8.316407   0.000342  -0.001867   0.012869  -0.046144
     9  O    0.000366   0.000342   8.252920  -0.022663  -0.002538  -0.000002
    10  O   -0.002254  -0.001867  -0.022663   8.215189   0.004000  -0.000266
    11  O    0.007509   0.012869  -0.002538   0.004000   8.415947  -0.000079
    12  H    0.011065  -0.046144  -0.000002  -0.000266  -0.000079   0.524312
    13  H   -0.004359  -0.048315  -0.000153   0.000015   0.000155  -0.036123
    14  H   -0.037961   0.008007   0.000538  -0.000450   0.000399   0.001883
    15  H   -0.047497  -0.038540   0.000130  -0.000498  -0.004530  -0.000251
    16  H   -0.001286   0.002857   0.009245  -0.054638   0.010334   0.000644
    17  H    0.009483   0.001422  -0.001562   0.002467  -0.030509   0.000010
    18  H    0.009854  -0.000098  -0.048715   0.000460  -0.001021   0.000207
    19  H    0.019004  -0.000883   0.247142  -0.005115   0.000487  -0.000002
    20  H   -0.000834   0.000201   0.032022   0.243707   0.008960  -0.000006
    21  H   -0.003064   0.000269   0.000619   0.000346   0.234054   0.000000
             13         14         15         16         17         18
     1  C    0.386699   0.023395   0.010212   0.011534   0.014762   0.020937
     2  C   -0.000598   0.269247   0.044092  -0.017114  -0.037500   0.009333
     3  C   -0.011301   0.017108   0.304611  -0.003840   0.050929  -0.039411
     4  C    0.006184   0.010282   0.016303   0.372890  -0.030678  -0.073896
     5  C   -0.001411  -0.018685   0.025011  -0.037463   0.259410   0.070420
     6  C    0.001267   0.044205  -0.028989  -0.005970   0.047234   0.339463
     7  O   -0.004359  -0.037961  -0.047497  -0.001286   0.009483   0.009854
     8  O   -0.048315   0.008007  -0.038540   0.002857   0.001422  -0.000098
     9  O   -0.000153   0.000538   0.000130   0.009245  -0.001562  -0.048715
    10  O    0.000015  -0.000450  -0.000498  -0.054638   0.002467   0.000460
    11  O    0.000155   0.000399  -0.004530   0.010334  -0.030509  -0.001021
    12  H   -0.036123   0.001883  -0.000251   0.000644   0.000010   0.000207
    13  H    0.527847  -0.002914   0.000379   0.000076  -0.000003  -0.000034
    14  H   -0.002914   0.493752  -0.000012  -0.000112   0.000022  -0.002717
    15  H    0.000379  -0.000012   0.532590  -0.000195  -0.003662   0.000023
    16  H    0.000076  -0.000112  -0.000195   0.520593  -0.004806  -0.003582
    17  H   -0.000003   0.000022  -0.003662  -0.004806   0.548887  -0.000117
    18  H   -0.000034  -0.002717   0.000023  -0.003582  -0.000117   0.526958
    19  H   -0.000006  -0.000402   0.000080  -0.000240   0.000011   0.006008
    20  H    0.000000  -0.000012  -0.000004   0.006485  -0.000372  -0.000616
    21  H    0.000000  -0.000002   0.002897  -0.000154  -0.006322   0.000016
             19         20         21
     1  C    0.002418   0.001881  -0.000905
     2  C   -0.021641   0.005460   0.012158
     3  C   -0.022949  -0.002088  -0.047962
     4  C   -0.054770   0.039192   0.023819
     5  C    0.071805  -0.028896   0.045817
     6  C    0.021522  -0.042559  -0.016485
     7  O    0.019004  -0.000834  -0.003064
     8  O   -0.000883   0.000201   0.000269
     9  O    0.247142   0.032022   0.000619
    10  O   -0.005115   0.243707   0.000346
    11  O    0.000487   0.008960   0.234054
    12  H   -0.000002  -0.000006   0.000000
    13  H   -0.000006   0.000000   0.000000
    14  H   -0.000402  -0.000012  -0.000002
    15  H    0.000080  -0.000004   0.002897
    16  H   -0.000240   0.006485  -0.000154
    17  H    0.000011  -0.000372  -0.006322
    18  H    0.006008  -0.000616   0.000016
    19  H    0.335630  -0.002458   0.000532
    20  H   -0.002458   0.355485  -0.000084
    21  H    0.000532  -0.000084   0.350251
 Mulliken atomic charges:
              1
     1  C   -0.226186
     2  C    0.316270
     3  C   -0.203466
     4  C   -0.145009
     5  C    0.297945
     6  C   -0.102595
     7  O   -0.368219
     8  O   -0.379542
     9  O   -0.562714
    10  O   -0.510024
    11  O   -0.620494
    12  H    0.184431
    13  H    0.182594
    14  H    0.194428
    15  H    0.187849
    16  H    0.194742
    17  H    0.180895
    18  H    0.186529
    19  H    0.403827
    20  H    0.384537
    21  H    0.404202
 Sum of Mulliken atomic charges =   0.00000
 Mulliken charges with hydrogens summed into heavy atoms:
              1
     1  C    0.140840
     2  C    0.510699
     3  C   -0.015617
     4  C    0.049733
     5  C    0.478840
     6  C    0.083934
     7  O   -0.368219
     8  O   -0.379542
     9  O   -0.158887
    10  O   -0.125488
    11  O   -0.216293
 Sum of Mulliken charges with hydrogens summed into heavy atoms =   0.00000
 Electronic spatial extent (au):  <R**2>=           1366.8402
 Charge=              0.0000 electrons
 Dipole moment (field-independent basis, Debye):
    X=             -2.9794    Y=              1.0974    Z=             -0.3511  Tot=              3.1944
 Quadrupole moment (field-independent basis, Debye-Ang):
   XX=            -72.0813   YY=            -55.8980   ZZ=            -68.4648
   XY=              7.4182   XZ=             -3.8907   YZ=             -6.7330
 Traceless Quadrupole moment (field-independent basis, Debye-Ang):
   XX=             -6.5999   YY=              9.5833   ZZ=             -2.9834
   XY=              7.4182   XZ=             -3.8907   YZ=             -6.7330
 Octapole moment (field-independent basis, Debye-Ang**2):
  XXX=             -7.4161  YYY=             27.5552  ZZZ=             -6.0432  XYY=             -6.0432
  XXY=             -9.0330  XXZ=            -14.7136  XZZ=             -2.3042  YZZ=              5.2978
  YYZ=             -6.2911  XYZ=             -0.9325
 Hexadecapole moment (field-independent basis, Debye-Ang**3):
 XXXX=           -827.7879 YYYY=           -433.1299 ZZZZ=           -351.1142 XXXY=             18.5490
 XXXZ=            -26.9211 YYYX=             26.4972 YYYZ=            -39.9617 ZZZX=            -28.0624
 ZZZY=            -12.6603 XXYY=           -227.0508 XXZZ=           -227.8675 YYZZ=           -131.7311
 XXYZ=            -14.6278 YYXZ=              7.3332 ZZXY=             17.9109
 N-N= 7.365784385573D+02 E-N=-2.902989092200D+03  KE= 6.052123837924D+02
 1\1\GINC-COMPUTE-8-20\SP\RmPW1PW91\6-31+G(d,p)\C6H10O5\MMARCARINO.IQUI
 R\12-Apr-2019\0\\# mpw1pw91/6-31+g** nmr scrf=(pcm,solvent=water)\\com
 ment\\0,1\C,0,-2.037599,-0.688757,0.673142\C,0,-1.046925,-1.077501,-0.
 433198\C,0,-0.99015,1.135029,-0.26856\C,0,0.839212,-0.093215,0.942497\
 C,0,0.457884,1.24014,0.260528\C,0,0.394105,-1.285708,0.063145\O,0,-1.0
 64308,0.114805,-1.245411\O,0,-1.867097,0.740733,0.786835\O,0,1.285618,
 -1.427656,-1.044257\O,0,2.222749,-0.173573,1.230064\O,0,1.37007,1.4340
 96,-0.823307\H,0,-1.828548,-1.162145,1.637467\H,0,-3.069585,-0.907101,
 0.379827\H,0,-1.375667,-1.912551,-1.053812\H,0,-1.344138,2.069533,-0.7
 14115\H,0,0.320783,-0.135374,1.903915\H,0,0.533073,2.064391,0.982194\H
 ,0,0.469444,-2.215664,0.635773\H,0,1.200597,-0.599793,-1.556082\H,0,2.
 6445,-0.374157,0.375165\H,0,1.174132,2.285695,-1.247047\\Version=EM64L
 -G09RevC.01\State=1-A\HF=-610.6527214\RMSD=6.173e-09\Dipole=-1.1721733
 ,0.4317687,-0.1381376\Quadrupole=-4.9068779,7.1249726,-2.2180947,5.515
 2758,-2.8926762,-5.0058009\PG=C01 [X(C6H10O5)]\\@


 BE CAREFUL NOT TO BECOME TOO GOOD OF A SONGBIRD OR 
 THEY'LL THROW YOU INTO A CAGE.

                                    -- SNOOPY TO WOODSTOCK
 Job cpu time:  0 days  0 hours 21 minutes 54.0 seconds.
 File lengths (MBytes):  RWF=     82 Int=      0 D2E=      0 Chk=      5 Scr=      1
 Normal termination of Gaussian 09 at Fri Apr 12 11:27:29 2019.
