 Entering Gaussian System, Link 0=g09
 Input=/home/mmarcarino.iquir/NMR/04_RRR_Levo02_OPTB_nmr.gjc
 Output=/home/mmarcarino.iquir/NMR/04_RRR_Levo02_OPTB_nmr.log
 Initial command:
 /share/apps/Gaussian09/EM64T.SSE4.2-enabled/g09/l1.exe /tmp/Gau-12213.inp -scrdir=/tmp/
 Entering Link 1 = /share/apps/Gaussian09/EM64T.SSE4.2-enabled/g09/l1.exe PID=     12215.
  
 Copyright (c) 1988,1990,1992,1993,1995,1998,2003,2009,2011,
            Gaussian, Inc.  All Rights Reserved.
  
 This is part of the Gaussian(R) 09 program.  It is based on
 the Gaussian(R) 03 system (copyright 2003, Gaussian, Inc.),
 the Gaussian(R) 98 system (copyright 1998, Gaussian, Inc.),
 the Gaussian(R) 94 system (copyright 1995, Gaussian, Inc.),
 the Gaussian 92(TM) system (copyright 1992, Gaussian, Inc.),
 the Gaussian 90(TM) system (copyright 1990, Gaussian, Inc.),
 the Gaussian 88(TM) system (copyright 1988, Gaussian, Inc.),
 the Gaussian 86(TM) system (copyright 1986, Carnegie Mellon
 University), and the Gaussian 82(TM) system (copyright 1983,
 Carnegie Mellon University). Gaussian is a federally registered
 trademark of Gaussian, Inc.
  
 This software contains proprietary and confidential information,
 including trade secrets, belonging to Gaussian, Inc.
  
 This software is provided under written license and may be
 used, copied, transmitted, or stored only in accord with that
 written license.
  
 The following legend is applicable only to US Government
 contracts under FAR:
  
                    RESTRICTED RIGHTS LEGEND
  
 Use, reproduction and disclosure by the US Government is
 subject to restrictions as set forth in subparagraphs (a)
 and (c) of the Commercial Computer Software - Restricted
 Rights clause in FAR 52.227-19.
  
 Gaussian, Inc.
 340 Quinnipiac St., Bldg. 40, Wallingford CT 06492
  
  
 ---------------------------------------------------------------
 Warning -- This program may not be used in any manner that
 competes with the business of Gaussian, Inc. or will provide
 assistance to any competitor of Gaussian, Inc.  The licensee
 of this program is prohibited from giving any competitor of
 Gaussian, Inc. access to this program.  By using this program,
 the user acknowledges that Gaussian, Inc. is engaged in the
 business of creating and licensing software in the field of
 computational chemistry and represents and warrants to the
 licensee that it is not a competitor of Gaussian, Inc. and that
 it will not use this program in any manner prohibited above.
 ---------------------------------------------------------------
  

 Cite this work as:
 Gaussian 09, Revision C.01,
 M. J. Frisch, G. W. Trucks, H. B. Schlegel, G. E. Scuseria, 
 M. A. Robb, J. R. Cheeseman, G. Scalmani, V. Barone, B. Mennucci, 
 G. A. Petersson, H. Nakatsuji, M. Caricato, X. Li, H. P. Hratchian, 
 A. F. Izmaylov, J. Bloino, G. Zheng, J. L. Sonnenberg, M. Hada, 
 M. Ehara, K. Toyota, R. Fukuda, J. Hasegawa, M. Ishida, T. Nakajima, 
 Y. Honda, O. Kitao, H. Nakai, T. Vreven, J. A. Montgomery, Jr., 
 J. E. Peralta, F. Ogliaro, M. Bearpark, J. J. Heyd, E. Brothers, 
 K. N. Kudin, V. N. Staroverov, T. Keith, R. Kobayashi, J. Normand, 
 K. Raghavachari, A. Rendell, J. C. Burant, S. S. Iyengar, J. Tomasi, 
 M. Cossi, N. Rega, J. M. Millam, M. Klene, J. E. Knox, J. B. Cross, 
 V. Bakken, C. Adamo, J. Jaramillo, R. Gomperts, R. E. Stratmann, 
 O. Yazyev, A. J. Austin, R. Cammi, C. Pomelli, J. W. Ochterski, 
 R. L. Martin, K. Morokuma, V. G. Zakrzewski, G. A. Voth, 
 P. Salvador, J. J. Dannenberg, S. Dapprich, A. D. Daniels, 
 O. Farkas, J. B. Foresman, J. V. Ortiz, J. Cioslowski, 
 and D. J. Fox, Gaussian, Inc., Wallingford CT, 2010.
 
 ******************************************
 Gaussian 09:  EM64L-G09RevC.01 23-Sep-2011
                12-Apr-2019 
 ******************************************
 %nprocshared=4
 Will use up to    4 processors via shared memory.
 ------------------------------------------------
 # mpw1pw91/6-31+g** nmr scrf=(pcm,solvent=water)
 ------------------------------------------------
 1/38=1/1;
 2/12=2,17=6,18=5,40=1/2;
 3/5=1,6=6,7=111,11=2,16=1,25=1,30=1,70=2201,72=1,74=-7/1,2,8,3;
 4//1;
 5/5=2,38=5,53=1/2;
 8/6=1,10=90,11=11/1;
 10/13=100,45=16/2;
 6/7=2,8=2,9=2,10=2,28=1/1;
 99/9=1/99;
 -------
 comment
 -------
 Charge =  0 Multiplicity = 1
 Symbolic Z-Matrix:
 6                    -2.05808   0.62813  -0.70089 
 6                    -1.05688   1.10059   0.36205 
 6                    -0.99001  -1.1202    0.35488 
 6                     0.84401   0.03903  -0.94295 
 6                     0.4283   -1.26483  -0.21362 
 6                     0.37264   1.29039  -0.16344 
 8                    -1.04336  -0.03      1.25667 
 8                    -1.89169  -0.80458  -0.70494 
 8                     1.27124   1.53185   0.92441 
 8                     2.26115   0.07178  -1.09116 
 8                     1.30308  -1.51765   0.88239 
 1                    -1.85716   1.02677  -1.70022 
 1                    -3.08648   0.87213  -0.41571 
 1                    -1.38599   1.97444   0.92631 
 1                    -1.32327  -2.02062   0.87654 
 1                     0.40346   0.0412   -1.94461 
 1                     0.44507  -2.10492  -0.92284 
 1                     0.43284   2.17623  -0.80326 
 1                     1.15991   0.77265   1.52946 
 1                     2.56928   0.65285  -0.36719 
 1                     2.199    -1.44055   0.50634 
 
                          Input orientation:                          
 ---------------------------------------------------------------------
 Center     Atomic      Atomic             Coordinates (Angstroms)
 Number     Number       Type             X           Y           Z
 ---------------------------------------------------------------------
      1          6           0       -2.058075    0.628132   -0.700888
      2          6           0       -1.056875    1.100594    0.362053
      3          6           0       -0.990010   -1.120198    0.354876
      4          6           0        0.844014    0.039028   -0.942949
      5          6           0        0.428298   -1.264833   -0.213617
      6          6           0        0.372644    1.290392   -0.163435
      7          8           0       -1.043356   -0.030004    1.256675
      8          8           0       -1.891692   -0.804583   -0.704944
      9          8           0        1.271244    1.531852    0.924409
     10          8           0        2.261149    0.071776   -1.091164
     11          8           0        1.303075   -1.517648    0.882392
     12          1           0       -1.857155    1.026772   -1.700223
     13          1           0       -3.086481    0.872127   -0.415713
     14          1           0       -1.385994    1.974436    0.926311
     15          1           0       -1.323274   -2.020618    0.876543
     16          1           0        0.403456    0.041196   -1.944611
     17          1           0        0.445069   -2.104920   -0.922841
     18          1           0        0.432843    2.176226   -0.803261
     19          1           0        1.159914    0.772654    1.529460
     20          1           0        2.569278    0.652851   -0.367189
     21          1           0        2.199001   -1.440554    0.506342
 ---------------------------------------------------------------------
                    Distance matrix (angstroms):
                    1          2          3          4          5
     1  C    0.000000
     2  C    1.534753   0.000000
     3  C    2.304790   2.221810   0.000000
     4  C    2.971154   2.538372   2.528201   0.000000
     5  C    3.162720   2.851733   1.534829   1.550741   0.000000
     6  C    2.576012   1.534824   2.817165   1.547819   2.556324
     7  O    2.301054   1.441799   1.415843   2.899186   2.419158
     8  O    1.442349   2.337756   1.426836   2.872701   2.415696
     9  O    3.813485   2.433591   3.531431   2.428595   3.134822
    10  O    4.372361   3.765580   3.752582   1.425241   2.432274
    11  O    4.290510   3.563048   2.386311   2.442508   1.424916
    12  H    1.094510   2.213341   3.095941   2.974124   3.561565
    13  H    1.094750   2.185502   2.993051   4.052261   4.118387
    14  H    2.216304   1.091012   3.171766   3.494692   3.883807
    15  H    3.169242   3.174529   1.092684   3.499976   2.197195
    16  H    2.819659   2.928411   2.928861   1.094268   2.168564
    17  H    3.712757   3.765914   2.159095   2.180843   1.099557
    18  H    2.934578   2.175822   3.772559   2.180869   3.491216
    19  H    3.918009   2.526764   3.095918   2.598231   2.779376
    20  H    4.639436   3.725755   4.041486   1.919587   2.878349
    21  H    4.884625   4.132672   3.208639   2.474994   1.919533
                    6          7          8          9         10
     6  C    0.000000
     7  O    2.401086   0.000000
     8  O    3.131991   2.273235   0.000000
     9  O    1.431499   2.811969   4.256511   0.000000
    10  O    2.431493   4.054930   4.261838   2.678482   0.000000
    11  O    3.137602   2.803375   3.637944   3.049956   2.709077
    12  H    2.720885   3.243808   2.084618   4.114691   4.271229
    13  H    3.493442   2.790176   2.079070   4.606618   5.449215
    14  H    2.179053   2.060175   3.261851   2.693844   4.581700
    15  H    3.862704   2.045825   2.074353   4.399302   4.593264
    16  H    2.175782   3.513768   2.742229   3.347594   2.044586
    17  H    3.479955   3.357227   2.683059   4.161852   2.839804
    18  H    1.094396   3.360052   3.781316   2.025581   2.802553
    19  H    1.937457   2.360735   4.097870   0.977171   2.927733
    20  H    2.296340   4.019247   4.705151   2.031197   0.978126
    21  H    3.352946   3.614627   4.313403   3.141769   2.200688
                   11         12         13         14         15
    11  O    0.000000
    12  H    4.809473   0.000000
    13  H    5.163749   1.784691   0.000000
    14  H    4.407683   2.831738   2.430590   0.000000
    15  H    2.674083   4.026331   3.625851   3.995856   0.000000
    16  H    3.351306   2.478194   3.899697   3.896375   3.897638
    17  H    2.083250   3.963843   4.646701   4.838729   2.524268
    18  H    4.152522   2.714752   3.773130   2.517997   4.849659
    19  H    2.384256   4.426978   4.671773   2.879187   3.794060
    20  H    2.806384   4.637899   5.660216   4.366223   4.883264
    21  H    0.974700   5.235363   5.842516   4.968976   3.588864
                   16         17         18         19         20
    16  H    0.000000
    17  H    2.377301   0.000000
    18  H    2.421135   4.282833   0.000000
    19  H    3.629935   3.847755   2.817842   0.000000
    20  H    2.748303   3.525098   2.659922   2.365996   0.000000
    21  H    3.380345   2.358013   4.232667   2.650427   2.298370
                   21
    21  H    0.000000
 Stoichiometry    C6H10O5
 Framework group  C1[X(C6H10O5)]
 Deg. of freedom    57
 Full point group                 C1      NOp   1
 Largest Abelian subgroup         C1      NOp   1
 Largest concise Abelian subgroup C1      NOp   1
                         Standard orientation:                         
 ---------------------------------------------------------------------
 Center     Atomic      Atomic             Coordinates (Angstroms)
 Number     Number       Type             X           Y           Z
 ---------------------------------------------------------------------
      1          6           0       -2.058075   -0.628132    0.700888
      2          6           0       -1.056875   -1.100594   -0.362053
      3          6           0       -0.990010    1.120198   -0.354876
      4          6           0        0.844014   -0.039028    0.942949
      5          6           0        0.428298    1.264833    0.213617
      6          6           0        0.372644   -1.290392    0.163435
      7          8           0       -1.043356    0.030004   -1.256675
      8          8           0       -1.891692    0.804583    0.704944
      9          8           0        1.271244   -1.531852   -0.924409
     10          8           0        2.261149   -0.071776    1.091164
     11          8           0        1.303075    1.517648   -0.882392
     12          1           0       -1.857155   -1.026772    1.700223
     13          1           0       -3.086481   -0.872127    0.415713
     14          1           0       -1.385994   -1.974436   -0.926311
     15          1           0       -1.323274    2.020618   -0.876543
     16          1           0        0.403456   -0.041196    1.944611
     17          1           0        0.445069    2.104920    0.922841
     18          1           0        0.432843   -2.176226    0.803261
     19          1           0        1.159914   -0.772654   -1.529460
     20          1           0        2.569278   -0.652851    0.367189
     21          1           0        2.199001    1.440554   -0.506342
 ---------------------------------------------------------------------
 Rotational constants (GHZ):      1.7306725      1.1489831      0.9934853
 Standard basis: 6-31+G(d,p) (6D, 7F)
 There are   259 symmetry adapted basis functions of A   symmetry.
 Integral buffers will be    131072 words long.
 Raffenetti 2 integral format.
 Two-electron integral symmetry is turned on.
   259 basis functions,   422 primitive gaussians,   259 cartesian basis functions
    43 alpha electrons       43 beta electrons
       nuclear repulsion energy       736.6803862863 Hartrees.
 NAtoms=   21 NActive=   21 NUniq=   21 SFac= 1.00D+00 NAtFMM=   60 NAOKFM=F Big=F
 ------------------------------------------------------------------------------
 Polarizable Continuum Model (PCM)
 =================================
 Model                : PCM.
 Atomic radii         : UFF (Universal Force Field).
 Polarization charges : Total charges.
 Charge compensation  : None.
 Solution method      : Matrix inversion.
 Cavity type          : Scaled VdW (van der Waals Surface) (Alpha=1.100).
 Cavity algorithm     : GePol (No added spheres)
                        Default sphere list used, NSphG=   21.
                        Lebedev-Laikov grids with approx.  5.0 points / Ang**2.
                        Smoothing algorithm: Karplus/York (Gamma=1.0000).
                        Polarization charges: spherical gaussians, with
                                              point-specific exponents (IZeta= 3).
                        Self-potential: point-specific (ISelfS= 7).
                        Self-field    : sphere-specific E.n sum rule (ISelfD= 2).
 Solvent              : Water, Eps=  78.355300 Eps(inf)=   1.777849
 ------------------------------------------------------------------------------
 One-electron integrals computed using PRISM.
 NBasis=   259 RedAO= T  NBF=   259
 NBsUse=   259 1.00D-06 NBFU=   259
 Harris functional with IExCor=  908 diagonalized for initial guess.
 ExpMin= 4.38D-02 ExpMax= 5.48D+03 ExpMxC= 8.25D+02 IAcc=2 IRadAn=         4 AccDes= 0.00D+00
 HarFok:  IExCor=  908 AccDes= 0.00D+00 IRadAn=         4 IDoV= 1
 ScaDFX=  1.000000  1.000000  1.000000  1.000000
 FoFCou: FMM=F IPFlag=           0 FMFlag=      100000 FMFlg1=           0
         NFxFlg=           0 DoJE=T BraDBF=F KetDBF=T FulRan=T
         Omega=  0.000000  0.000000  1.000000  0.000000  0.000000 ICntrl=     500 IOpCl=  0
         NMat0=    1 NMatS0=    1 NMatT0=    0 NMatD0=    1 NMtDS0=    0 NMtDT0=    0
         I1Cent=           4 NGrid=           0.
 Petite list used in FoFCou.
 Initial guess orbital symmetries:
       Occupied  (A) (A) (A) (A) (A) (A) (A) (A) (A) (A) (A) (A)
                 (A) (A) (A) (A) (A) (A) (A) (A) (A) (A) (A) (A)
                 (A) (A) (A) (A) (A) (A) (A) (A) (A) (A) (A) (A)
                 (A) (A) (A) (A) (A) (A) (A)
       Virtual   (A) (A) (A) (A) (A) (A) (A) (A) (A) (A) (A) (A)
                 (A) (A) (A) (A) (A) (A) (A) (A) (A) (A) (A) (A)
                 (A) (A) (A) (A) (A) (A) (A) (A) (A) (A) (A) (A)
                 (A) (A) (A) (A) (A) (A) (A) (A) (A) (A) (A) (A)
                 (A) (A) (A) (A) (A) (A) (A) (A) (A) (A) (A) (A)
                 (A) (A) (A) (A) (A) (A) (A) (A) (A) (A) (A) (A)
                 (A) (A) (A) (A) (A) (A) (A) (A) (A) (A) (A) (A)
                 (A) (A) (A) (A) (A) (A) (A) (A) (A) (A) (A) (A)
                 (A) (A) (A) (A) (A) (A) (A) (A) (A) (A) (A) (A)
                 (A) (A) (A) (A) (A) (A) (A) (A) (A) (A) (A) (A)
                 (A) (A) (A) (A) (A) (A) (A) (A) (A) (A) (A) (A)
                 (A) (A) (A) (A) (A) (A) (A) (A) (A) (A) (A) (A)
                 (A) (A) (A) (A) (A) (A) (A) (A) (A) (A) (A) (A)
                 (A) (A) (A) (A) (A) (A) (A) (A) (A) (A) (A) (A)
                 (A) (A) (A) (A) (A) (A) (A) (A) (A) (A) (A) (A)
                 (A) (A) (A) (A) (A) (A) (A) (A) (A) (A) (A) (A)
                 (A) (A) (A) (A) (A) (A) (A) (A) (A) (A) (A) (A)
                 (A) (A) (A) (A) (A) (A) (A) (A) (A) (A) (A) (A)
 The electronic state of the initial guess is 1-A.
 Requested convergence on RMS density matrix=1.00D-08 within 128 cycles.
 Requested convergence on MAX density matrix=1.00D-06.
 Requested convergence on             energy=1.00D-06.
 No special actions if energy rises.
 Error on total polarization charges =  0.01145
 SCF Done:  E(RmPW1PW91) =  -610.653907454     A.U. after   12 cycles
             Convg  =    0.6368D-08             -V/T =  2.0090
 Range of M.O.s used for correlation:     1   259
 NBasis=   259 NAE=    43 NBE=    43 NFC=     0 NFV=     0
 NROrb=    259 NOA=    43 NOB=    43 NVA=   216 NVB=   216

 **** Warning!!: The largest alpha MO coefficient is  0.54201191D+02

 NEqPCM:  Using equilibrium solvation (IEInf=0, Eps=  78.3553, EpsInf=   1.7778)
          Differentiating once with respect to magnetic field using GIAOs.
          Electric field/nuclear overlap derivatives assumed to be zero.
 FoFCou: FMM=F IPFlag=           0 FMFlag=    10101102 FMFlg1=           0
         NFxFlg=    40000000 DoJE=F BraDBF=F KetDBF=T FulRan=T
         Omega=  0.000000  0.000000  1.000000  0.000000  0.000000 ICntrl=    6100 IOpCl=  0
         NMat0=    1 NMatS0=    1 NMatT0=    0 NMatD0=    1 NMtDS0=    0 NMtDT0=    0
         I1Cent=           7 NGrid=        1511.
 Symmetry not used in FoFCou.
          There are     3 degrees of freedom in the 1st order CPHF.  IDoFFX=0.
      3 vectors produced by pass  0 Test12= 3.10D-13 3.33D-08 XBig12= 1.99D+01 9.51D-01.
 AX will form     3 AO Fock derivatives at one time.
      3 vectors produced by pass  1 Test12= 3.10D-13 3.33D-08 XBig12= 4.52D-02 3.17D-02.
      3 vectors produced by pass  2 Test12= 3.10D-13 3.33D-08 XBig12= 9.57D-05 1.41D-03.
      3 vectors produced by pass  3 Test12= 3.10D-13 3.33D-08 XBig12= 4.88D-07 1.20D-04.
      3 vectors produced by pass  4 Test12= 3.10D-13 3.33D-08 XBig12= 1.48D-09 5.32D-06.
      3 vectors produced by pass  5 Test12= 3.10D-13 3.33D-08 XBig12= 4.72D-12 4.24D-07.
 Inverted reduced A of dimension    18 with in-core refinement.
 Calculating GIAO nuclear magnetic shielding tensors.
 SCF GIAO Magnetic shielding tensor (ppm):
      1  C    Isotropic =   130.4576   Anisotropy =    62.5885
   XX=   111.2503   YX=     8.2277   ZX=   -10.6790
   XY=     3.0226   YY=   171.6066   ZY=     6.1464
   XZ=    -5.3764   YZ=    -0.8739   ZZ=   108.5158
   Eigenvalues:   101.2844   117.9051   172.1832
      2  C    Isotropic =   117.9421   Anisotropy =    47.6027
   XX=   106.8301   YX=    -5.8225   ZX=   -14.0907
   XY=    -6.1538   YY=   130.3921   ZY=   -19.2806
   XZ=    -1.3408   YZ=   -31.2293   ZZ=   116.6040
   Eigenvalues:    91.2118   112.9372   149.6772
      3  C    Isotropic =    94.1099   Anisotropy =    34.5191
   XX=    91.7642   YX=    14.2365   ZX=   -24.0594
   XY=     7.3087   YY=    90.2733   ZY=     5.6468
   XZ=   -16.2465   YZ=    19.9933   ZZ=   100.2922
   Eigenvalues:    64.7548   100.4523   117.1226
      4  C    Isotropic =   130.7276   Anisotropy =    50.2899
   XX=   164.1203   YX=    -1.1813   ZX=     7.6265
   XY=    -0.3912   YY=   117.3658   ZY=    -5.5902
   XZ=    -2.7475   YZ=    -5.1095   ZZ=   110.6969
   Eigenvalues:   107.6728   120.2559   164.2543
      5  C    Isotropic =   124.2846   Anisotropy =    38.2070
   XX=   130.0488   YX=     4.5003   ZX=   -27.7787
   XY=     2.2217   YY=   113.4823   ZY=    -3.7190
   XZ=   -10.8104   YZ=    -4.5422   ZZ=   129.3226
   Eigenvalues:   110.2473   112.8505   149.7559
      6  C    Isotropic =   123.8787   Anisotropy =    44.9159
   XX=   129.9830   YX=    -2.1331   ZX=   -27.5223
   XY=     1.5928   YY=   104.4222   ZY=     5.2687
   XZ=   -11.1075   YZ=     7.9419   ZZ=   137.2310
   Eigenvalues:   102.4772   115.3363   153.8227
      7  O    Isotropic =   260.8329   Anisotropy =    60.5124
   XX=   225.3383   YX=    32.9287   ZX=   -34.0942
   XY=    20.1486   YY=   285.9246   ZY=    21.1707
   XZ=   -59.7008   YZ=    16.3802   ZZ=   271.2357
   Eigenvalues:   185.5763   295.7479   301.1745
      8  O    Isotropic =   268.9114   Anisotropy =   119.6729
   XX=   235.8091   YX=    14.9196   ZX=   -74.1990
   XY=    15.7065   YY=   286.1957   ZY=    24.0402
   XZ=   -73.3910   YZ=    57.6235   ZZ=   284.7294
   Eigenvalues:   170.7459   287.2950   348.6933
      9  O    Isotropic =   298.7042   Anisotropy =    53.6916
   XX=   261.3737   YX=    -8.7142   ZX=    21.8178
   XY=    -7.8419   YY=   315.5141   ZY=   -21.5631
   XZ=   -15.8673   YZ=   -10.8370   ZZ=   319.2247
   Eigenvalues:   260.1308   301.4832   334.4986
     10  O    Isotropic =   308.4721   Anisotropy =    44.0194
   XX=   304.2862   YX=    -4.8631   ZX=    18.7273
   XY=   -15.9067   YY=   323.8513   ZY=    27.0269
   XZ=    39.8193   YZ=    16.4894   ZZ=   297.2789
   Eigenvalues:   262.4629   325.1351   337.8184
     11  O    Isotropic =   303.9204   Anisotropy =    24.1573
   XX=   312.6994   YX=     1.6903   ZX=    18.8709
   XY=    -3.1814   YY=   290.4572   ZY=    19.3623
   XZ=    -1.5800   YZ=    -5.6163   ZZ=   308.6045
   Eigenvalues:   287.6127   304.1232   320.0252
     12  H    Isotropic =    27.7016   Anisotropy =     7.5007
   XX=    26.2523   YX=     0.9814   ZX=    -1.1329
   XY=     0.9770   YY=    27.6318   ZY=    -4.3999
   XZ=    -2.5939   YZ=    -2.6460   ZZ=    29.2206
   Eigenvalues:    24.6580    25.7446    32.7020
     13  H    Isotropic =    27.6363   Anisotropy =    11.4259
   XX=    32.7678   YX=     3.7508   ZX=    -0.7509
   XY=     4.9446   YY=    27.6398   ZY=     0.8359
   XZ=     0.2850   YZ=     0.6652   ZZ=    22.5012
   Eigenvalues:    22.2933    25.3619    35.2535
     14  H    Isotropic =    26.8850   Anisotropy =     8.7570
   XX=    25.8080   YX=     3.0140   ZX=     1.8233
   XY=     2.4656   YY=    30.8494   ZY=     2.9036
   XZ=     0.7861   YZ=     1.2327   ZZ=    23.9978
   Eigenvalues:    23.2377    24.6944    32.7230
     15  H    Isotropic =    25.9505   Anisotropy =     8.0068
   XX=    24.4859   YX=    -1.9345   ZX=     0.4002
   XY=    -2.3348   YY=    29.5994   ZY=    -2.7184
   XZ=     0.3522   YZ=    -2.5755   ZZ=    23.7664
   Eigenvalues:    22.6110    23.9522    31.2884
     16  H    Isotropic =    27.8205   Anisotropy =     5.5085
   XX=    29.4936   YX=    -0.6357   ZX=    -1.3929
   XY=    -0.0892   YY=    22.6675   ZY=    -0.6176
   XZ=     0.1931   YZ=    -0.2585   ZZ=    31.3005
   Eigenvalues:    22.6228    29.3459    31.4929
     17  H    Isotropic =    27.8197   Anisotropy =     7.4985
   XX=    25.4396   YX=    -0.6222   ZX=    -2.4080
   XY=     0.6885   YY=    29.8264   ZY=     3.1605
   XZ=    -2.1257   YZ=     3.7174   ZZ=    28.1932
   Eigenvalues:    23.5484    27.0922    32.8187
     18  H    Isotropic =    27.9000   Anisotropy =     7.6815
   XX=    25.4043   YX=     0.6669   ZX=    -2.1279
   XY=    -0.6953   YY=    29.9900   ZY=    -3.0869
   XZ=    -1.0999   YZ=    -4.2008   ZZ=    28.3056
   Eigenvalues:    24.0768    26.6021    33.0210
     19  H    Isotropic =    29.0612   Anisotropy =    14.6319
   XX=    23.8635   YX=    -3.2693   ZX=    -3.2188
   XY=    -1.4719   YY=    32.4794   ZY=    -7.3691
   XZ=    -1.5064   YZ=    -6.8426   ZZ=    30.8407
   Eigenvalues:    20.8276    27.5402    38.8158
     20  H    Isotropic =    28.1389   Anisotropy =    16.5848
   XX=    28.5903   YX=    -3.3703   ZX=    -1.5563
   XY=    -3.7247   YY=    26.8384   ZY=    10.2167
   XZ=    -2.8837   YZ=     9.1623   ZZ=    28.9880
   Eigenvalues:    18.0256    27.1957    39.1954
     21  H    Isotropic =    28.7921   Anisotropy =    16.8003
   XX=    38.9067   YX=     1.1499   ZX=     4.0559
   XY=     2.3875   YY=    23.0018   ZY=    -5.2649
   XZ=     4.0662   YZ=    -3.6336   ZZ=    24.4679
   Eigenvalues:    18.4382    27.9459    39.9923
 End of Minotr Frequency-dependent properties file   721 does not exist.
 End of Minotr Frequency-dependent properties file   722 does not exist.

 **********************************************************************

            Population analysis using the SCF density.

 **********************************************************************

 Orbital symmetries:
       Occupied  (A) (A) (A) (A) (A) (A) (A) (A) (A) (A) (A) (A)
                 (A) (A) (A) (A) (A) (A) (A) (A) (A) (A) (A) (A)
                 (A) (A) (A) (A) (A) (A) (A) (A) (A) (A) (A) (A)
                 (A) (A) (A) (A) (A) (A) (A)
       Virtual   (A) (A) (A) (A) (A) (A) (A) (A) (A) (A) (A) (A)
                 (A) (A) (A) (A) (A) (A) (A) (A) (A) (A) (A) (A)
                 (A) (A) (A) (A) (A) (A) (A) (A) (A) (A) (A) (A)
                 (A) (A) (A) (A) (A) (A) (A) (A) (A) (A) (A) (A)
                 (A) (A) (A) (A) (A) (A) (A) (A) (A) (A) (A) (A)
                 (A) (A) (A) (A) (A) (A) (A) (A) (A) (A) (A) (A)
                 (A) (A) (A) (A) (A) (A) (A) (A) (A) (A) (A) (A)
                 (A) (A) (A) (A) (A) (A) (A) (A) (A) (A) (A) (A)
                 (A) (A) (A) (A) (A) (A) (A) (A) (A) (A) (A) (A)
                 (A) (A) (A) (A) (A) (A) (A) (A) (A) (A) (A) (A)
                 (A) (A) (A) (A) (A) (A) (A) (A) (A) (A) (A) (A)
                 (A) (A) (A) (A) (A) (A) (A) (A) (A) (A) (A) (A)
                 (A) (A) (A) (A) (A) (A) (A) (A) (A) (A) (A) (A)
                 (A) (A) (A) (A) (A) (A) (A) (A) (A) (A) (A) (A)
                 (A) (A) (A) (A) (A) (A) (A) (A) (A) (A) (A) (A)
                 (A) (A) (A) (A) (A) (A) (A) (A) (A) (A) (A) (A)
                 (A) (A) (A) (A) (A) (A) (A) (A) (A) (A) (A) (A)
                 (A) (A) (A) (A) (A) (A) (A) (A) (A) (A) (A) (A)
 The electronic state is 1-A.
 Alpha  occ. eigenvalues --  -19.28232 -19.27313 -19.27161 -19.26617 -19.26558
 Alpha  occ. eigenvalues --  -10.36256 -10.32245 -10.31983 -10.31572 -10.31192
 Alpha  occ. eigenvalues --  -10.31178  -1.14847  -1.09534  -1.07036  -1.05537
 Alpha  occ. eigenvalues --   -1.04212  -0.82804  -0.81060  -0.70674  -0.68443
 Alpha  occ. eigenvalues --   -0.65673  -0.60906  -0.58458  -0.55111  -0.53446
 Alpha  occ. eigenvalues --   -0.52913  -0.51731  -0.49673  -0.47212  -0.46771
 Alpha  occ. eigenvalues --   -0.45189  -0.44098  -0.42374  -0.40813  -0.39194
 Alpha  occ. eigenvalues --   -0.38651  -0.37093  -0.35696  -0.34005  -0.33161
 Alpha  occ. eigenvalues --   -0.30223  -0.29104  -0.28840
 Alpha virt. eigenvalues --    0.00375   0.01307   0.02549   0.02697   0.03979
 Alpha virt. eigenvalues --    0.04694   0.05120   0.05291   0.06116   0.07936
 Alpha virt. eigenvalues --    0.08639   0.09566   0.10007   0.10281   0.11463
 Alpha virt. eigenvalues --    0.12203   0.13175   0.13241   0.13832   0.14255
 Alpha virt. eigenvalues --    0.15305   0.15774   0.16215   0.16481   0.17438
 Alpha virt. eigenvalues --    0.17974   0.18599   0.19381   0.19752   0.20507
 Alpha virt. eigenvalues --    0.20822   0.22027   0.22456   0.23077   0.23523
 Alpha virt. eigenvalues --    0.24494   0.24713   0.25322   0.25926   0.27903
 Alpha virt. eigenvalues --    0.28648   0.29026   0.29395   0.29983   0.30836
 Alpha virt. eigenvalues --    0.31456   0.31665   0.32085   0.33109   0.33551
 Alpha virt. eigenvalues --    0.34641   0.35098   0.35307   0.36689   0.36734
 Alpha virt. eigenvalues --    0.37823   0.38034   0.38315   0.39855   0.41569
 Alpha virt. eigenvalues --    0.42073   0.43997   0.45572   0.46991   0.47320
 Alpha virt. eigenvalues --    0.49865   0.63742   0.66207   0.66793   0.67862
 Alpha virt. eigenvalues --    0.69057   0.71666   0.73798   0.75707   0.77644
 Alpha virt. eigenvalues --    0.78912   0.80704   0.82434   0.83041   0.86107
 Alpha virt. eigenvalues --    0.87612   0.93680   0.95068   0.96790   1.00110
 Alpha virt. eigenvalues --    1.02434   1.04048   1.05188   1.05448   1.08268
 Alpha virt. eigenvalues --    1.09474   1.10019   1.10787   1.12134   1.13521
 Alpha virt. eigenvalues --    1.17214   1.20823   1.24636   1.26976   1.27424
 Alpha virt. eigenvalues --    1.27845   1.29638   1.30619   1.32295   1.34105
 Alpha virt. eigenvalues --    1.35304   1.37981   1.38888   1.40940   1.41932
 Alpha virt. eigenvalues --    1.43725   1.45069   1.45531   1.48469   1.50621
 Alpha virt. eigenvalues --    1.53046   1.54542   1.57371   1.59089   1.60192
 Alpha virt. eigenvalues --    1.61043   1.62343   1.65943   1.68651   1.70230
 Alpha virt. eigenvalues --    1.72140   1.72549   1.73085   1.76453   1.79772
 Alpha virt. eigenvalues --    1.80145   1.83210   1.84767   1.84996   1.86816
 Alpha virt. eigenvalues --    1.90046   1.92284   1.93964   1.97641   1.98508
 Alpha virt. eigenvalues --    2.02882   2.04826   2.06449   2.07297   2.08498
 Alpha virt. eigenvalues --    2.09765   2.12669   2.14449   2.17479   2.18945
 Alpha virt. eigenvalues --    2.20288   2.21131   2.23022   2.25314   2.30201
 Alpha virt. eigenvalues --    2.30841   2.31986   2.37406   2.38456   2.44233
 Alpha virt. eigenvalues --    2.45167   2.45532   2.50224   2.50633   2.52285
 Alpha virt. eigenvalues --    2.54037   2.57805   2.59061   2.61783   2.64107
 Alpha virt. eigenvalues --    2.65119   2.67710   2.69501   2.71545   2.71897
 Alpha virt. eigenvalues --    2.73151   2.74781   2.76409   2.78496   2.81056
 Alpha virt. eigenvalues --    2.83858   2.84172   2.86692   2.89985   2.91239
 Alpha virt. eigenvalues --    2.92970   2.94668   2.98023   3.00574   3.04049
 Alpha virt. eigenvalues --    3.04850   3.09949   3.11305   3.13680   3.19889
 Alpha virt. eigenvalues --    3.35306   3.40331   3.44793   3.47174   3.49338
 Alpha virt. eigenvalues --    3.50903   3.53435   3.58433   3.60081   3.60906
 Alpha virt. eigenvalues --    4.28773   4.35581   4.43330   4.46742   4.53109
 Alpha virt. eigenvalues --    4.54095   4.62552   4.76037   4.84728   4.91966
 Alpha virt. eigenvalues --    5.06052
          Condensed to atoms (all electrons):
              1          2          3          4          5          6
     1  C    5.617330  -0.420210  -0.375838  -0.114273   0.084176   0.284427
     2  C   -0.420210   7.606125  -0.615477   0.306124   0.458803  -1.451512
     3  C   -0.375838  -0.615477   6.756983  -0.164509  -0.889551   0.494757
     4  C   -0.114273   0.306124  -0.164509   6.413646  -0.192529  -0.396396
     5  C    0.084176   0.458803  -0.889551  -0.192529   6.903867  -0.549611
     6  C    0.284427  -1.451512   0.494757  -0.396396  -0.549611   7.022736
     7  O   -0.010711   0.142281   0.298458  -0.083938  -0.094035  -0.081563
     8  O    0.191725  -0.134189   0.379522   0.064093  -0.257903  -0.013056
     9  O    0.011792  -0.131141  -0.020539  -0.120098  -0.026446   0.330970
    10  O   -0.002396  -0.041714   0.073608   0.279872  -0.193562  -0.045797
    11  O    0.028894  -0.132299  -0.124346  -0.179443   0.190073   0.184465
    12  H    0.450781  -0.145422   0.011661  -0.037448   0.017472   0.063039
    13  H    0.387279   0.000397  -0.009279   0.006949  -0.002261  -0.000852
    14  H    0.018599   0.288824   0.011551   0.014476  -0.014344   0.027485
    15  H    0.010042   0.044774   0.320225   0.024275  -0.000896  -0.028976
    16  H    0.018412  -0.041424   0.000098   0.362518  -0.052016   0.003363
    17  H    0.022247  -0.055254   0.021559  -0.033088   0.268089   0.068515
    18  H    0.020979   0.007609  -0.030323  -0.057284   0.054081   0.334522
    19  H    0.005520  -0.023690  -0.012717  -0.037229   0.044377   0.017416
    20  H   -0.000620   0.028666  -0.013960   0.023454   0.003937  -0.065179
    21  H   -0.001684  -0.002405   0.038475  -0.035979  -0.000781  -0.007160
              7          8          9         10         11         12
     1  C   -0.010711   0.191725   0.011792  -0.002396   0.028894   0.450781
     2  C    0.142281  -0.134189  -0.131141  -0.041714  -0.132299  -0.145422
     3  C    0.298458   0.379522  -0.020539   0.073608  -0.124346   0.011661
     4  C   -0.083938   0.064093  -0.120098   0.279872  -0.179443  -0.037448
     5  C   -0.094035  -0.257903  -0.026446  -0.193562   0.190073   0.017472
     6  C   -0.081563  -0.013056   0.330970  -0.045797   0.184465   0.063039
     7  O    8.294200  -0.043299  -0.005863  -0.005550   0.006783   0.011426
     8  O   -0.043299   8.294605   0.000488   0.000979   0.013917  -0.046456
     9  O   -0.005863   0.000488   8.253255  -0.012716   0.031942   0.000042
    10  O   -0.005550   0.000979  -0.012716   8.296075   0.014791  -0.000276
    11  O    0.006783   0.013917   0.031942   0.014791   8.331695  -0.000080
    12  H    0.011426  -0.046456   0.000042  -0.000276  -0.000080   0.524312
    13  H   -0.005029  -0.048524  -0.000157   0.000027   0.000145  -0.036470
    14  H   -0.038219   0.007699   0.000122  -0.000540   0.000416   0.001925
    15  H   -0.047874  -0.038204  -0.000173  -0.000717   0.004060  -0.000258
    16  H   -0.002391   0.004329   0.012848  -0.040856   0.010876   0.000937
    17  H    0.008547   0.001767  -0.000389   0.004740  -0.034322   0.000006
    18  H    0.009152  -0.000299  -0.049143  -0.000391  -0.000845   0.000060
    19  H    0.021081  -0.000882   0.248328  -0.004809   0.001464  -0.000008
    20  H   -0.000560   0.000114   0.041361   0.239547  -0.003619  -0.000007
    21  H   -0.000866  -0.000614  -0.002488   0.032332   0.232830   0.000000
             13         14         15         16         17         18
     1  C    0.387279   0.018599   0.010042   0.018412   0.022247   0.020979
     2  C    0.000397   0.288824   0.044774  -0.041424  -0.055254   0.007609
     3  C   -0.009279   0.011551   0.320225   0.000098   0.021559  -0.030323
     4  C    0.006949   0.014476   0.024275   0.362518  -0.033088  -0.057284
     5  C   -0.002261  -0.014344  -0.000896  -0.052016   0.268089   0.054081
     6  C   -0.000852   0.027485  -0.028976   0.003363   0.068515   0.334522
     7  O   -0.005029  -0.038219  -0.047874  -0.002391   0.008547   0.009152
     8  O   -0.048524   0.007699  -0.038204   0.004329   0.001767  -0.000299
     9  O   -0.000157   0.000122  -0.000173   0.012848  -0.000389  -0.049143
    10  O    0.000027  -0.000540  -0.000717  -0.040856   0.004740  -0.000391
    11  O    0.000145   0.000416   0.004060   0.010876  -0.034322  -0.000845
    12  H   -0.036470   0.001925  -0.000258   0.000937   0.000006   0.000060
    13  H    0.527085  -0.003049   0.000359   0.000045  -0.000005  -0.000019
    14  H   -0.003049   0.489378  -0.000001  -0.000109   0.000022  -0.002463
    15  H    0.000359  -0.000001   0.530303  -0.000233  -0.003694   0.000022
    16  H    0.000045  -0.000109  -0.000233   0.534773  -0.002910  -0.004073
    17  H   -0.000005   0.000022  -0.003694  -0.002910   0.560733  -0.000138
    18  H   -0.000019  -0.002463   0.000022  -0.004073  -0.000138   0.517849
    19  H   -0.000005  -0.000377   0.000122  -0.000360  -0.000026   0.005930
    20  H    0.000000  -0.000020   0.000006   0.004049  -0.000443  -0.000480
    21  H    0.000000   0.000002  -0.000198   0.000302  -0.003928  -0.000024
             19         20         21
     1  C    0.005520  -0.000620  -0.001684
     2  C   -0.023690   0.028666  -0.002405
     3  C   -0.012717  -0.013960   0.038475
     4  C   -0.037229   0.023454  -0.035979
     5  C    0.044377   0.003937  -0.000781
     6  C    0.017416  -0.065179  -0.007160
     7  O    0.021081  -0.000560  -0.000866
     8  O   -0.000882   0.000114  -0.000614
     9  O    0.248328   0.041361  -0.002488
    10  O   -0.004809   0.239547   0.032332
    11  O    0.001464  -0.003619   0.232830
    12  H   -0.000008  -0.000007   0.000000
    13  H   -0.000005   0.000000   0.000000
    14  H   -0.000377  -0.000020   0.000002
    15  H    0.000122   0.000006  -0.000198
    16  H   -0.000360   0.004049   0.000302
    17  H   -0.000026  -0.000443  -0.003928
    18  H    0.005930  -0.000480  -0.000024
    19  H    0.331798  -0.003608  -0.001452
    20  H   -0.003608   0.347339  -0.003014
    21  H   -0.001452  -0.003014   0.356380
 Mulliken atomic charges:
              1
     1  C   -0.226471
     2  C    0.311136
     3  C   -0.150357
     4  C   -0.043191
     5  C    0.249061
     6  C   -0.191591
     7  O   -0.372030
     8  O   -0.375812
     9  O   -0.561995
    10  O   -0.592645
    11  O   -0.577398
    12  H    0.184762
    13  H    0.183365
    14  H    0.198621
    15  H    0.187038
    16  H    0.191823
    17  H    0.177972
    18  H    0.195277
    19  H    0.409125
    20  H    0.403037
    21  H    0.400271
 Sum of Mulliken atomic charges =   0.00000
 Mulliken charges with hydrogens summed into heavy atoms:
              1
     1  C    0.141656
     2  C    0.509757
     3  C    0.036681
     4  C    0.148632
     5  C    0.427033
     6  C    0.003686
     7  O   -0.372030
     8  O   -0.375812
     9  O   -0.152870
    10  O   -0.189608
    11  O   -0.177127
 Sum of Mulliken charges with hydrogens summed into heavy atoms =   0.00000
 Electronic spatial extent (au):  <R**2>=           1369.9744
 Charge=              0.0000 electrons
 Dipole moment (field-independent basis, Debye):
    X=             -1.3463    Y=             -1.7684    Z=              1.5333  Tot=              2.7002
 Quadrupole moment (field-independent basis, Debye-Ang):
   XX=            -65.6076   YY=            -63.2806   ZZ=            -69.4321
   XY=              6.0521   XZ=             -2.7139   YZ=             -2.1573
 Traceless Quadrupole moment (field-independent basis, Debye-Ang):
   XX=              0.4992   YY=              2.8262   ZZ=             -3.3254
   XY=              6.0521   XZ=             -2.7139   YZ=             -2.1573
 Octapole moment (field-independent basis, Debye-Ang**2):
  XXX=              9.0748  YYY=              3.3701  ZZZ=              0.1772  XYY=             -8.3733
  XXY=             -6.8628  XXZ=            -14.6505  XZZ=             -3.2818  YZZ=             -4.3082
  YYZ=              7.0984  XYZ=              3.7498
 Hexadecapole moment (field-independent basis, Debye-Ang**3):
 XXXX=           -801.8765 YYYY=           -510.7001 ZZZZ=           -332.6201 XXXY=             33.9624
 XXXZ=            -35.2169 YYYX=              7.5473 YYYZ=             -5.3267 ZZZX=            -20.4598
 ZZZY=              2.8492 XXYY=           -221.7305 XXZZ=           -221.2771 YYZZ=           -146.9306
 XXYZ=            -14.9229 YYXZ=             23.3185 ZZXY=              3.5089
 N-N= 7.366803862863D+02 E-N=-2.902897992709D+03  KE= 6.052185083957D+02
 1\1\GINC-COMPUTE-8-8\SP\RmPW1PW91\6-31+G(d,p)\C6H10O5\MMARCARINO.IQUIR
 \12-Apr-2019\0\\# mpw1pw91/6-31+g** nmr scrf=(pcm,solvent=water)\\comm
 ent\\0,1\C,0,-2.058075,0.628132,-0.700888\C,0,-1.056875,1.100594,0.362
 053\C,0,-0.99001,-1.120198,0.354876\C,0,0.844014,0.039028,-0.942949\C,
 0,0.428298,-1.264833,-0.213617\C,0,0.372644,1.290392,-0.163435\O,0,-1.
 043356,-0.030004,1.256675\O,0,-1.891692,-0.804583,-0.704944\O,0,1.2712
 44,1.531852,0.924409\O,0,2.261149,0.071776,-1.091164\O,0,1.303075,-1.5
 17648,0.882392\H,0,-1.857155,1.026772,-1.700223\H,0,-3.086481,0.872127
 ,-0.415713\H,0,-1.385994,1.974436,0.926311\H,0,-1.323274,-2.020618,0.8
 76543\H,0,0.403456,0.041196,-1.944611\H,0,0.445069,-2.10492,-0.922841\
 H,0,0.432843,2.176226,-0.803261\H,0,1.159914,0.772654,1.52946\H,0,2.56
 9278,0.652851,-0.367189\H,0,2.199001,-1.440554,0.506342\\Version=EM64L
 -G09RevC.01\State=1-A\HF=-610.6539075\RMSD=6.368e-09\Dipole=-0.5296783
 ,0.6957573,-0.6032408\Quadrupole=0.3711477,2.1011767,-2.4723243,-4.499
 5873,2.0177047,-1.6038665\PG=C01 [X(C6H10O5)]\\@


 WHEN IT COMES TO CASH FLOW, IT SEEMS LIKE THE TIDE IS ALWAYS GOING OUT.
 Job cpu time:  0 days  0 hours 23 minutes  5.3 seconds.
 File lengths (MBytes):  RWF=     82 Int=      0 D2E=      0 Chk=      5 Scr=      1
 Normal termination of Gaussian 09 at Fri Apr 12 11:25:16 2019.
