 Entering Gaussian System, Link 0=g09
 Input=/home/asarotti.iquir/SCF3/04_RRR_Levo13_OPTB_energy_b3lyp_smd.gjc
 Output=/home/asarotti.iquir/SCF3/04_RRR_Levo13_OPTB_energy_b3lyp_smd.log
 Initial command:
 /share/apps/Gaussian09/EM64T.SSE4.2-enabled/g09/l1.exe /tmp/Gau-11810.inp -scrdir=/tmp/
 Entering Link 1 = /share/apps/Gaussian09/EM64T.SSE4.2-enabled/g09/l1.exe PID=     11811.
  
 Copyright (c) 1988,1990,1992,1993,1995,1998,2003,2009,2011,
            Gaussian, Inc.  All Rights Reserved.
  
 This is part of the Gaussian(R) 09 program.  It is based on
 the Gaussian(R) 03 system (copyright 2003, Gaussian, Inc.),
 the Gaussian(R) 98 system (copyright 1998, Gaussian, Inc.),
 the Gaussian(R) 94 system (copyright 1995, Gaussian, Inc.),
 the Gaussian 92(TM) system (copyright 1992, Gaussian, Inc.),
 the Gaussian 90(TM) system (copyright 1990, Gaussian, Inc.),
 the Gaussian 88(TM) system (copyright 1988, Gaussian, Inc.),
 the Gaussian 86(TM) system (copyright 1986, Carnegie Mellon
 University), and the Gaussian 82(TM) system (copyright 1983,
 Carnegie Mellon University). Gaussian is a federally registered
 trademark of Gaussian, Inc.
  
 This software contains proprietary and confidential information,
 including trade secrets, belonging to Gaussian, Inc.
  
 This software is provided under written license and may be
 used, copied, transmitted, or stored only in accord with that
 written license.
  
 The following legend is applicable only to US Government
 contracts under FAR:
  
                    RESTRICTED RIGHTS LEGEND
  
 Use, reproduction and disclosure by the US Government is
 subject to restrictions as set forth in subparagraphs (a)
 and (c) of the Commercial Computer Software - Restricted
 Rights clause in FAR 52.227-19.
  
 Gaussian, Inc.
 340 Quinnipiac St., Bldg. 40, Wallingford CT 06492
  
  
 ---------------------------------------------------------------
 Warning -- This program may not be used in any manner that
 competes with the business of Gaussian, Inc. or will provide
 assistance to any competitor of Gaussian, Inc.  The licensee
 of this program is prohibited from giving any competitor of
 Gaussian, Inc. access to this program.  By using this program,
 the user acknowledges that Gaussian, Inc. is engaged in the
 business of creating and licensing software in the field of
 computational chemistry and represents and warrants to the
 licensee that it is not a competitor of Gaussian, Inc. and that
 it will not use this program in any manner prohibited above.
 ---------------------------------------------------------------
  

 Cite this work as:
 Gaussian 09, Revision C.01,
 M. J. Frisch, G. W. Trucks, H. B. Schlegel, G. E. Scuseria, 
 M. A. Robb, J. R. Cheeseman, G. Scalmani, V. Barone, B. Mennucci, 
 G. A. Petersson, H. Nakatsuji, M. Caricato, X. Li, H. P. Hratchian, 
 A. F. Izmaylov, J. Bloino, G. Zheng, J. L. Sonnenberg, M. Hada, 
 M. Ehara, K. Toyota, R. Fukuda, J. Hasegawa, M. Ishida, T. Nakajima, 
 Y. Honda, O. Kitao, H. Nakai, T. Vreven, J. A. Montgomery, Jr., 
 J. E. Peralta, F. Ogliaro, M. Bearpark, J. J. Heyd, E. Brothers, 
 K. N. Kudin, V. N. Staroverov, T. Keith, R. Kobayashi, J. Normand, 
 K. Raghavachari, A. Rendell, J. C. Burant, S. S. Iyengar, J. Tomasi, 
 M. Cossi, N. Rega, J. M. Millam, M. Klene, J. E. Knox, J. B. Cross, 
 V. Bakken, C. Adamo, J. Jaramillo, R. Gomperts, R. E. Stratmann, 
 O. Yazyev, A. J. Austin, R. Cammi, C. Pomelli, J. W. Ochterski, 
 R. L. Martin, K. Morokuma, V. G. Zakrzewski, G. A. Voth, 
 P. Salvador, J. J. Dannenberg, S. Dapprich, A. D. Daniels, 
 O. Farkas, J. B. Foresman, J. V. Ortiz, J. Cioslowski, 
 and D. J. Fox, Gaussian, Inc., Wallingford CT, 2010.
 
 ******************************************
 Gaussian 09:  EM64L-G09RevC.01 23-Sep-2011
                16-Apr-2019 
 ******************************************
 %nprocshared=4
 Will use up to    4 processors via shared memory.
 -----------------------------------------------------------
 # B3LYP/6-31+G** test scrf=(pcm,solvent=water,smd,dovacuum)
 -----------------------------------------------------------
 1/38=1/1;
 2/12=2,17=6,18=5,40=1/2;
 3/5=1,6=6,7=111,11=2,16=1,25=1,30=1,70=32101,72=1,74=-5/1,2,3;
 4//1;
 5/5=2,38=5,53=1/2;
 6/7=2,8=2,9=2,10=2,28=1/1;
 99/5=1,9=1/99;
 -------
 comment
 -------
 Charge =  0 Multiplicity = 1
 Symbolic Z-Matrix:
 6                     2.10116  -0.83218  -0.33752 
 6                     0.79433  -1.17501   0.39228 
 6                     0.95929   1.02253   0.40875 
 6                    -1.22851   0.11241  -0.51903 
 6                    -0.26087   1.30935  -0.51346 
 6                    -0.43939  -1.22229  -0.5536 
 8                     0.70045  -0.05212   1.2883 
 8                     2.07458   0.60458  -0.38857 
 8                    -1.38864  -2.21591  -0.16514 
 8                    -2.05501   0.16371   0.63443 
 8                    -0.98794   2.46312  -0.10978 
 1                     2.16044  -1.23678  -1.35224 
 1                     2.97324  -1.16559   0.23639 
 1                     0.85895  -2.08205   0.99686 
 1                     1.23356   1.90289   0.99698 
 1                    -1.85481   0.16756  -1.42188 
 1                     0.13067   1.43819  -1.53161 
 1                    -0.10284  -1.4135   -1.58152 
 1                    -0.94888  -3.08048  -0.14242 
 1                    -2.30232  -0.76291   0.80655 
 1                    -0.45163   3.23682  -0.34562 
 
                          Input orientation:                          
 ---------------------------------------------------------------------
 Center     Atomic      Atomic             Coordinates (Angstroms)
 Number     Number       Type             X           Y           Z
 ---------------------------------------------------------------------
      1          6           0        2.101162   -0.832184   -0.337524
      2          6           0        0.794329   -1.175009    0.392281
      3          6           0        0.959291    1.022528    0.408750
      4          6           0       -1.228511    0.112405   -0.519030
      5          6           0       -0.260865    1.309354   -0.513460
      6          6           0       -0.439387   -1.222294   -0.553595
      7          8           0        0.700446   -0.052115    1.288302
      8          8           0        2.074580    0.604578   -0.388565
      9          8           0       -1.388640   -2.215906   -0.165143
     10          8           0       -2.055011    0.163706    0.634430
     11          8           0       -0.987939    2.463117   -0.109778
     12          1           0        2.160444   -1.236784   -1.352236
     13          1           0        2.973239   -1.165590    0.236391
     14          1           0        0.858954   -2.082048    0.996862
     15          1           0        1.233559    1.902890    0.996977
     16          1           0       -1.854805    0.167560   -1.421883
     17          1           0        0.130669    1.438190   -1.531605
     18          1           0       -0.102841   -1.413496   -1.581522
     19          1           0       -0.948877   -3.080478   -0.142416
     20          1           0       -2.302324   -0.762905    0.806550
     21          1           0       -0.451626    3.236816   -0.345615
 ---------------------------------------------------------------------
                    Distance matrix (angstroms):
                    1          2          3          4          5
     1  C    0.000000
     2  C    1.535564   0.000000
     3  C    2.302336   2.203781   0.000000
     4  C    3.465821   2.565113   2.544716   0.000000
     5  C    3.193166   2.847079   1.556124   1.539174   0.000000
     6  C    2.579392   1.555305   2.814540   1.550914   2.538252
     7  O    2.283380   1.439638   1.412611   2.648470   2.454397
     8  O    1.437914   2.327164   1.433270   3.342105   2.442665
     9  O    3.758074   2.481842   4.040988   2.360489   3.717615
    10  O    4.382952   3.157457   3.142375   1.419931   2.418496
    11  O    4.522546   4.082218   2.477069   2.398168   1.422239
    12  H    1.094009   2.216625   3.106176   3.741598   3.612354
    13  H    1.095927   2.184500   2.978851   4.456303   4.140900
    14  H    2.210391   1.091977   3.161382   3.386896   3.877715
    15  H    3.164531   3.167340   1.093742   3.400868   2.206130
    16  H    4.221966   3.480171   3.464293   1.100195   2.160919
    17  H    3.234698   3.312188   2.150434   2.151833   1.098416
    18  H    2.596745   2.181213   3.320169   2.173568   2.929102
    19  H    3.794157   2.637324   4.558459   3.227156   4.458885
    20  H    4.550208   3.151303   3.739539   1.917395   3.194407
    21  H    4.803494   4.643393   2.731817   3.224216   1.944138
                    6          7          8          9         10
     6  C    0.000000
     7  O    2.461935   0.000000
     8  O    3.112029   2.265253   0.000000
     9  O    1.428020   3.340475   4.472017   0.000000
    10  O    2.437753   2.840188   4.277196   2.597291   0.000000
    11  O    3.752351   3.336415   3.593176   4.696476   2.641927
    12  H    2.719772   3.241524   2.080060   3.868316   4.866033
    13  H    3.503328   2.740790   2.081262   4.504485   5.216202
    14  H    2.197449   2.056864   3.258084   2.533743   3.696750
    15  H    3.869082   2.047224   2.076694   5.019057   3.737766
    16  H    2.165416   3.731309   4.086416   2.734523   2.066040
    17  H    2.891305   3.239989   2.404213   4.186638   3.330648
    18  H    1.098388   3.276357   3.199520   2.074433   3.347981
    19  H    1.970151   3.733390   4.772999   0.970254   3.514506
    20  H    2.351928   3.123129   4.738734   1.972363   0.974370
    21  H    4.463974   3.848899   3.648594   5.535589   3.602129
                   11         12         13         14         15
    11  O    0.000000
    12  H    5.014507   0.000000
    13  H    5.383148   1.785900   0.000000
    14  H    5.029333   2.815423   2.426605   0.000000
    15  H    2.544369   4.029326   3.608400   4.002507   0.000000
    16  H    2.782563   4.254322   5.276094   4.274991   4.289551
    17  H    2.079267   3.362684   4.240953   4.394954   2.797506
    18  H    4.239995   2.281723   3.581694   2.831974   4.408292
    19  H    5.543829   3.811922   4.381014   2.358616   5.558345
    20  H    3.602011   4.980082   5.321541   3.430749   4.432290
    21  H    0.970495   5.277243   5.607995   5.640051   2.534119
                   16         17         18         19         20
    16  H    0.000000
    17  H    2.359798   0.000000
    18  H    2.365291   2.861666   0.000000
    19  H    3.606590   4.849085   2.359159   0.000000
    20  H    2.456003   4.028802   3.311175   2.846665   0.000000
    21  H    3.542259   2.231747   4.824367   6.340091   4.555254
                   21
    21  H    0.000000
 Stoichiometry    C6H10O5
 Framework group  C1[X(C6H10O5)]
 Deg. of freedom    57
 Full point group                 C1      NOp   1
 Largest Abelian subgroup         C1      NOp   1
 Largest concise Abelian subgroup C1      NOp   1
                         Standard orientation:                         
 ---------------------------------------------------------------------
 Center     Atomic      Atomic             Coordinates (Angstroms)
 Number     Number       Type             X           Y           Z
 ---------------------------------------------------------------------
      1          6           0        2.101155   -0.832201   -0.337524
      2          6           0        0.794320   -1.175015    0.392281
      3          6           0        0.959299    1.022520    0.408750
      4          6           0       -1.228510    0.112415   -0.519030
      5          6           0       -0.260854    1.309356   -0.513460
      6          6           0       -0.439397   -1.222290   -0.553595
      7          8           0        0.700446   -0.052121    1.288302
      8          8           0        2.074585    0.604561   -0.388565
      9          8           0       -1.388658   -2.215895   -0.165143
     10          8           0       -2.055010    0.163723    0.634430
     11          8           0       -0.987919    2.463125   -0.109778
     12          1           0        2.160434   -1.236801   -1.352236
     13          1           0        2.973230   -1.165614    0.236391
     14          1           0        0.858937   -2.082055    0.996862
     15          1           0        1.233574    1.902880    0.996977
     16          1           0       -1.854804    0.167575   -1.421883
     17          1           0        0.130681    1.438189   -1.531605
     18          1           0       -0.102852   -1.413495   -1.581522
     19          1           0       -0.948902   -3.080470   -0.142416
     20          1           0       -2.302330   -0.762886    0.806550
     21          1           0       -0.451600    3.236820   -0.345615
 ---------------------------------------------------------------------
 Rotational constants (GHZ):      1.4187463      1.3564718      0.8380533
 Standard basis: 6-31+G(d,p) (6D, 7F)
 There are   259 symmetry adapted basis functions of A   symmetry.
 Integral buffers will be    131072 words long.
 Raffenetti 2 integral format.
 Two-electron integral symmetry is turned on.
   259 basis functions,   422 primitive gaussians,   259 cartesian basis functions
    43 alpha electrons       43 beta electrons
       nuclear repulsion energy       724.3939423547 Hartrees.
 NAtoms=   21 NActive=   21 NUniq=   21 SFac= 1.00D+00 NAtFMM=   60 NAOKFM=F Big=F
 ------------------------------------------------------------------------------
 Polarizable Continuum Model (PCM)
 =================================
 Model                : C-PCM.
 Atomic radii         : SMD-Coulomb.
 Polarization charges : Total charges.
 Charge compensation  : None.
 Solution method      : Matrix inversion.
 Cavity type          : VdW (van der Waals Surface) (Alpha=1.000).
 Cavity algorithm     : GePol (No added spheres)
                        Default sphere list used, NSphG=   21.
                        Lebedev-Laikov grids with approx.  5.0 points / Ang**2.
                        Smoothing algorithm: Karplus/York (Gamma=1.0000).
                        Polarization charges: spherical gaussians, with
                                              point-specific exponents (IZeta= 3).
                        Self-potential: point-specific (ISelfS= 7).
                        Self-field    : sphere-specific E.n sum rule (ISelfD= 2).
 Solvent              : Water, Eps=  78.355300 Eps(inf)=   1.777849
 ------------------------------------------------------------------------------
 ------------------------------------------------------------------------------
 Atomic radii for non-electrostatic terms: SMD-CDS.
 ------------------------------------------------------------------------------
 Nuclear repulsion after PCM non-electrostatic terms =      724.3992368066 Hartrees.
 One-electron integrals computed using PRISM.
 NBasis=   259 RedAO= T  NBF=   259
 NBsUse=   259 1.00D-06 NBFU=   259
 Harris functional with IExCor=  402 diagonalized for initial guess.
 ExpMin= 4.38D-02 ExpMax= 5.48D+03 ExpMxC= 8.25D+02 IAcc=2 IRadAn=         4 AccDes= 0.00D+00
 HarFok:  IExCor=  402 AccDes= 0.00D+00 IRadAn=         4 IDoV= 1
 ScaDFX=  1.000000  1.000000  1.000000  1.000000
 FoFCou: FMM=F IPFlag=           0 FMFlag=      100000 FMFlg1=           0
         NFxFlg=           0 DoJE=T BraDBF=F KetDBF=T FulRan=T
         Omega=  0.000000  0.000000  1.000000  0.000000  0.000000 ICntrl=     500 IOpCl=  0
         NMat0=    1 NMatS0=    1 NMatT0=    0 NMatD0=    1 NMtDS0=    0 NMtDT0=    0
         I1Cent=           4 NGrid=           0.
 Petite list used in FoFCou.
 Initial guess orbital symmetries:
       Occupied  (A) (A) (A) (A) (A) (A) (A) (A) (A) (A) (A) (A)
                 (A) (A) (A) (A) (A) (A) (A) (A) (A) (A) (A) (A)
                 (A) (A) (A) (A) (A) (A) (A) (A) (A) (A) (A) (A)
                 (A) (A) (A) (A) (A) (A) (A)
       Virtual   (A) (A) (A) (A) (A) (A) (A) (A) (A) (A) (A) (A)
                 (A) (A) (A) (A) (A) (A) (A) (A) (A) (A) (A) (A)
                 (A) (A) (A) (A) (A) (A) (A) (A) (A) (A) (A) (A)
                 (A) (A) (A) (A) (A) (A) (A) (A) (A) (A) (A) (A)
                 (A) (A) (A) (A) (A) (A) (A) (A) (A) (A) (A) (A)
                 (A) (A) (A) (A) (A) (A) (A) (A) (A) (A) (A) (A)
                 (A) (A) (A) (A) (A) (A) (A) (A) (A) (A) (A) (A)
                 (A) (A) (A) (A) (A) (A) (A) (A) (A) (A) (A) (A)
                 (A) (A) (A) (A) (A) (A) (A) (A) (A) (A) (A) (A)
                 (A) (A) (A) (A) (A) (A) (A) (A) (A) (A) (A) (A)
                 (A) (A) (A) (A) (A) (A) (A) (A) (A) (A) (A) (A)
                 (A) (A) (A) (A) (A) (A) (A) (A) (A) (A) (A) (A)
                 (A) (A) (A) (A) (A) (A) (A) (A) (A) (A) (A) (A)
                 (A) (A) (A) (A) (A) (A) (A) (A) (A) (A) (A) (A)
                 (A) (A) (A) (A) (A) (A) (A) (A) (A) (A) (A) (A)
                 (A) (A) (A) (A) (A) (A) (A) (A) (A) (A) (A) (A)
                 (A) (A) (A) (A) (A) (A) (A) (A) (A) (A) (A) (A)
                 (A) (A) (A) (A) (A) (A) (A) (A) (A) (A) (A) (A)
 The electronic state of the initial guess is 1-A.
 Requested convergence on RMS density matrix=1.00D-08 within 128 cycles.
 Requested convergence on MAX density matrix=1.00D-06.
 Requested convergence on             energy=1.00D-06.
 No special actions if energy rises.
 Error on total polarization charges =  0.05765
 SCF Done:  E(RB3LYP) =  -610.798548399     A.U. after   12 cycles
             Convg  =    0.4464D-08             -V/T =  2.0090
 SMD-CDS (non-electrostatic) energy       (kcal/mol) =       3.32
 (included in total energy above)

 **********************************************************************

            Population analysis using the SCF density.

 **********************************************************************

 Orbital symmetries:
       Occupied  (A) (A) (A) (A) (A) (A) (A) (A) (A) (A) (A) (A)
                 (A) (A) (A) (A) (A) (A) (A) (A) (A) (A) (A) (A)
                 (A) (A) (A) (A) (A) (A) (A) (A) (A) (A) (A) (A)
                 (A) (A) (A) (A) (A) (A) (A)
       Virtual   (A) (A) (A) (A) (A) (A) (A) (A) (A) (A) (A) (A)
                 (A) (A) (A) (A) (A) (A) (A) (A) (A) (A) (A) (A)
                 (A) (A) (A) (A) (A) (A) (A) (A) (A) (A) (A) (A)
                 (A) (A) (A) (A) (A) (A) (A) (A) (A) (A) (A) (A)
                 (A) (A) (A) (A) (A) (A) (A) (A) (A) (A) (A) (A)
                 (A) (A) (A) (A) (A) (A) (A) (A) (A) (A) (A) (A)
                 (A) (A) (A) (A) (A) (A) (A) (A) (A) (A) (A) (A)
                 (A) (A) (A) (A) (A) (A) (A) (A) (A) (A) (A) (A)
                 (A) (A) (A) (A) (A) (A) (A) (A) (A) (A) (A) (A)
                 (A) (A) (A) (A) (A) (A) (A) (A) (A) (A) (A) (A)
                 (A) (A) (A) (A) (A) (A) (A) (A) (A) (A) (A) (A)
                 (A) (A) (A) (A) (A) (A) (A) (A) (A) (A) (A) (A)
                 (A) (A) (A) (A) (A) (A) (A) (A) (A) (A) (A) (A)
                 (A) (A) (A) (A) (A) (A) (A) (A) (A) (A) (A) (A)
                 (A) (A) (A) (A) (A) (A) (A) (A) (A) (A) (A) (A)
                 (A) (A) (A) (A) (A) (A) (A) (A) (A) (A) (A) (A)
                 (A) (A) (A) (A) (A) (A) (A) (A) (A) (A) (A) (A)
                 (A) (A) (A) (A) (A) (A) (A) (A) (A) (A) (A) (A)
 The electronic state is 1-A.
 Alpha  occ. eigenvalues --  -19.18171 -19.17582 -19.17338 -19.17114 -19.16147
 Alpha  occ. eigenvalues --  -10.29154 -10.25153 -10.25028 -10.24782 -10.24637
 Alpha  occ. eigenvalues --  -10.23829  -1.11084  -1.05603  -1.03975  -1.01928
 Alpha  occ. eigenvalues --   -1.00986  -0.78960  -0.78143  -0.67636  -0.65737
 Alpha  occ. eigenvalues --   -0.62579  -0.57272  -0.54793  -0.54650  -0.52265
 Alpha  occ. eigenvalues --   -0.51896  -0.47889  -0.46179  -0.45443  -0.44650
 Alpha  occ. eigenvalues --   -0.43126  -0.41174  -0.40425  -0.38544  -0.36345
 Alpha  occ. eigenvalues --   -0.36224  -0.35038  -0.33968  -0.33014  -0.30286
 Alpha  occ. eigenvalues --   -0.29799  -0.27349  -0.25560
 Alpha virt. eigenvalues --    0.00344   0.01731   0.01896   0.02701   0.03855
 Alpha virt. eigenvalues --    0.04575   0.05147   0.05419   0.05938   0.08394
 Alpha virt. eigenvalues --    0.08693   0.09104   0.09875   0.10783   0.11531
 Alpha virt. eigenvalues --    0.12206   0.13105   0.13430   0.13922   0.14306
 Alpha virt. eigenvalues --    0.14913   0.15865   0.16307   0.16745   0.17198
 Alpha virt. eigenvalues --    0.18224   0.19282   0.19551   0.20349   0.20912
 Alpha virt. eigenvalues --    0.21198   0.21538   0.22402   0.23800   0.24361
 Alpha virt. eigenvalues --    0.24791   0.24826   0.25362   0.26657   0.27011
 Alpha virt. eigenvalues --    0.27794   0.28382   0.29252   0.29301   0.29842
 Alpha virt. eigenvalues --    0.30488   0.31513   0.31834   0.32769   0.33383
 Alpha virt. eigenvalues --    0.34545   0.35005   0.35426   0.36233   0.36450
 Alpha virt. eigenvalues --    0.37168   0.38142   0.39488   0.40272   0.41049
 Alpha virt. eigenvalues --    0.41387   0.42278   0.42622   0.43157   0.45410
 Alpha virt. eigenvalues --    0.49263   0.63083   0.67049   0.67714   0.69447
 Alpha virt. eigenvalues --    0.71057   0.72073   0.74453   0.75077   0.77374
 Alpha virt. eigenvalues --    0.78772   0.79946   0.82247   0.83264   0.84486
 Alpha virt. eigenvalues --    0.86232   0.89995   0.92313   0.94026   0.96882
 Alpha virt. eigenvalues --    0.99955   1.00776   1.02311   1.04798   1.05600
 Alpha virt. eigenvalues --    1.05967   1.07402   1.10689   1.11485   1.14870
 Alpha virt. eigenvalues --    1.15695   1.21904   1.23140   1.24718   1.25955
 Alpha virt. eigenvalues --    1.26875   1.28603   1.30540   1.30663   1.32834
 Alpha virt. eigenvalues --    1.34208   1.34921   1.36975   1.39639   1.41254
 Alpha virt. eigenvalues --    1.43126   1.45927   1.46529   1.47309   1.49679
 Alpha virt. eigenvalues --    1.51922   1.54494   1.55130   1.57187   1.59230
 Alpha virt. eigenvalues --    1.62144   1.62898   1.64090   1.65464   1.68327
 Alpha virt. eigenvalues --    1.69649   1.71890   1.75637   1.76883   1.77910
 Alpha virt. eigenvalues --    1.80057   1.80430   1.82790   1.86111   1.88422
 Alpha virt. eigenvalues --    1.88985   1.92275   1.94169   1.94901   1.96858
 Alpha virt. eigenvalues --    1.98557   2.01166   2.02386   2.04155   2.07098
 Alpha virt. eigenvalues --    2.09076   2.12320   2.13738   2.14272   2.15359
 Alpha virt. eigenvalues --    2.17093   2.20764   2.23870   2.25670   2.31606
 Alpha virt. eigenvalues --    2.35080   2.36445   2.38356   2.42107   2.42935
 Alpha virt. eigenvalues --    2.44493   2.46287   2.47905   2.52697   2.55255
 Alpha virt. eigenvalues --    2.58010   2.59204   2.60702   2.62535   2.63508
 Alpha virt. eigenvalues --    2.64927   2.65931   2.68126   2.68762   2.70465
 Alpha virt. eigenvalues --    2.71003   2.73141   2.73850   2.75978   2.78445
 Alpha virt. eigenvalues --    2.80281   2.82705   2.84232   2.85525   2.90921
 Alpha virt. eigenvalues --    2.92414   2.93943   2.95819   3.01594   3.02652
 Alpha virt. eigenvalues --    3.05758   3.08960   3.11399   3.12460   3.21579
 Alpha virt. eigenvalues --    3.33221   3.40466   3.43851   3.45820   3.46403
 Alpha virt. eigenvalues --    3.47787   3.51256   3.52316   3.53476   3.58136
 Alpha virt. eigenvalues --    4.25496   4.33442   4.40947   4.43630   4.45836
 Alpha virt. eigenvalues --    4.54312   4.61502   4.75464   4.86754   4.95317
 Alpha virt. eigenvalues --    5.05581
          Condensed to atoms (all electrons):
              1          2          3          4          5          6
     1  C    5.396197   0.073459  -0.301443   0.096609   0.059322  -0.170422
     2  C    0.073459   6.364068  -0.429220  -0.204744   0.130140  -0.229180
     3  C   -0.301443  -0.429220   6.139614  -0.331063  -0.263587   0.375159
     4  C    0.096609  -0.204744  -0.331063   5.644115   0.113820   0.130355
     5  C    0.059322   0.130140  -0.263587   0.113820   6.061047  -0.424463
     6  C   -0.170422  -0.229180   0.375159   0.130355  -0.424463   5.935252
     7  O   -0.057996   0.104286   0.230245   0.030059  -0.074699  -0.130425
     8  O    0.164746  -0.147111   0.274957  -0.000458  -0.122274   0.046150
     9  O    0.018786  -0.072173  -0.011674  -0.085911   0.025810   0.169576
    10  O    0.009411   0.009552   0.012829   0.218713  -0.157901  -0.050623
    11  O    0.004729  -0.004002  -0.118497  -0.130353   0.274476   0.024660
    12  H    0.454419  -0.127508   0.015721   0.001662   0.011724   0.005629
    13  H    0.408066  -0.018611  -0.018554  -0.001241   0.001869   0.002933
    14  H    0.000556   0.327581   0.016019   0.024624  -0.001957  -0.028009
    15  H    0.016045   0.006444   0.392347   0.024304  -0.067923   0.003683
    16  H   -0.004868   0.024200   0.027755   0.368256  -0.081271  -0.012105
    17  H    0.015158   0.009921  -0.102963  -0.018315   0.426801  -0.024002
    18  H    0.038393  -0.123213   0.008995  -0.024109  -0.009463   0.403872
    19  H   -0.000416  -0.037104   0.001647   0.013117  -0.003576   0.030111
    20  H    0.000770   0.000136  -0.007151  -0.006556   0.026113  -0.033722
    21  H    0.000191   0.000921  -0.026198   0.014923   0.013501  -0.001638
              7          8          9         10         11         12
     1  C   -0.057996   0.164746   0.018786   0.009411   0.004729   0.454419
     2  C    0.104286  -0.147111  -0.072173   0.009552  -0.004002  -0.127508
     3  C    0.230245   0.274957  -0.011674   0.012829  -0.118497   0.015721
     4  C    0.030059  -0.000458  -0.085911   0.218713  -0.130353   0.001662
     5  C   -0.074699  -0.122274   0.025810  -0.157901   0.274476   0.011724
     6  C   -0.130425   0.046150   0.169576  -0.050623   0.024660   0.005629
     7  O    8.419410  -0.074930   0.016829   0.008843   0.011369   0.010624
     8  O   -0.074930   8.450315  -0.000193   0.000679   0.002414  -0.047884
     9  O    0.016829  -0.000193   8.404822  -0.019342  -0.000564   0.000327
    10  O    0.008843   0.000679  -0.019342   8.418819   0.011161  -0.000066
    11  O    0.011369   0.002414  -0.000564   0.011161   8.362679  -0.000033
    12  H    0.010624  -0.047884   0.000327  -0.000066  -0.000033   0.542911
    13  H   -0.001644  -0.048810  -0.000004   0.000060   0.000035  -0.041249
    14  H   -0.033432   0.007859  -0.004192  -0.002027   0.000047   0.002190
    15  H   -0.047866  -0.040777   0.000036  -0.001815  -0.000555  -0.000275
    16  H   -0.000765  -0.001426   0.002945  -0.052160   0.003974   0.000001
    17  H    0.008196  -0.001616   0.000065   0.006782  -0.042397  -0.000027
    18  H    0.008804   0.000227  -0.042143   0.004980  -0.000457   0.002160
    19  H   -0.000802   0.000022   0.246403   0.001131   0.000024   0.000056
    20  H   -0.002544   0.000054   0.024047   0.244950  -0.000529  -0.000001
    21  H   -0.000456   0.000704   0.000001  -0.000369   0.244936  -0.000001
             13         14         15         16         17         18
     1  C    0.408066   0.000556   0.016045  -0.004868   0.015158   0.038393
     2  C   -0.018611   0.327581   0.006444   0.024200   0.009921  -0.123213
     3  C   -0.018554   0.016019   0.392347   0.027755  -0.102963   0.008995
     4  C   -0.001241   0.024624   0.024304   0.368256  -0.018315  -0.024109
     5  C    0.001869  -0.001957  -0.067923  -0.081271   0.426801  -0.009463
     6  C    0.002933  -0.028009   0.003683  -0.012105  -0.024002   0.403872
     7  O   -0.001644  -0.033432  -0.047866  -0.000765   0.008196   0.008804
     8  O   -0.048810   0.007859  -0.040777  -0.001426  -0.001616   0.000227
     9  O   -0.000004  -0.004192   0.000036   0.002945   0.000065  -0.042143
    10  O    0.000060  -0.002027  -0.001815  -0.052160   0.006782   0.004980
    11  O    0.000035   0.000047  -0.000555   0.003974  -0.042397  -0.000457
    12  H   -0.041249   0.002190  -0.000275   0.000001  -0.000027   0.002160
    13  H    0.556083  -0.003721   0.000385   0.000001  -0.000038   0.000206
    14  H   -0.003721   0.512243  -0.000045  -0.000143   0.000027   0.002023
    15  H    0.000385  -0.000045   0.542814  -0.000163   0.001202   0.000025
    16  H    0.000001  -0.000143  -0.000163   0.583723  -0.005520  -0.005599
    17  H   -0.000038   0.000027   0.001202  -0.005520   0.550233   0.002125
    18  H    0.000206   0.002023   0.000025  -0.005599   0.002125   0.561996
    19  H   -0.000029   0.002376   0.000000  -0.000170   0.000003  -0.004205
    20  H    0.000001  -0.000063   0.000017  -0.001031  -0.000162   0.000742
    21  H    0.000000   0.000000   0.001909  -0.000162  -0.007411   0.000001
             19         20         21
     1  C   -0.000416   0.000770   0.000191
     2  C   -0.037104   0.000136   0.000921
     3  C    0.001647  -0.007151  -0.026198
     4  C    0.013117  -0.006556   0.014923
     5  C   -0.003576   0.026113   0.013501
     6  C    0.030111  -0.033722  -0.001638
     7  O   -0.000802  -0.002544  -0.000456
     8  O    0.000022   0.000054   0.000704
     9  O    0.246403   0.024047   0.000001
    10  O    0.001131   0.244950  -0.000369
    11  O    0.000024  -0.000529   0.244936
    12  H    0.000056  -0.000001  -0.000001
    13  H   -0.000029   0.000001   0.000000
    14  H    0.002376  -0.000063   0.000000
    15  H    0.000000   0.000017   0.001909
    16  H   -0.000170  -0.001031  -0.000162
    17  H    0.000003  -0.000162  -0.007411
    18  H   -0.004205   0.000742   0.000001
    19  H    0.326998  -0.000868   0.000000
    20  H   -0.000868   0.331115   0.000002
    21  H    0.000000   0.000002   0.333822
 Mulliken atomic charges:
              1
     1  C   -0.221713
     2  C    0.342158
     3  C    0.115064
     4  C    0.122193
     5  C    0.062491
     6  C   -0.022793
     7  O   -0.423107
     8  O   -0.462649
     9  O   -0.673451
    10  O   -0.663607
    11  O   -0.643115
    12  H    0.169619
    13  H    0.164263
    14  H    0.178045
    15  H    0.170209
    16  H    0.154528
    17  H    0.181939
    18  H    0.174641
    19  H    0.425282
    20  H    0.424679
    21  H    0.425323
 Sum of Mulliken atomic charges =   0.00000
 Mulliken charges with hydrogens summed into heavy atoms:
              1
     1  C    0.112170
     2  C    0.520203
     3  C    0.285273
     4  C    0.276720
     5  C    0.244430
     6  C    0.151848
     7  O   -0.423107
     8  O   -0.462649
     9  O   -0.248169
    10  O   -0.238928
    11  O   -0.217792
 Sum of Mulliken charges with hydrogens summed into heavy atoms =   0.00000
 Electronic spatial extent (au):  <R**2>=           1460.1328
 Charge=              0.0000 electrons
 Dipole moment (field-independent basis, Debye):
    X=              4.0255    Y=             -4.4581    Z=             -3.9611  Tot=              7.1951
 Quadrupole moment (field-independent basis, Debye-Ang):
   XX=            -77.0042   YY=            -47.2741   ZZ=            -66.6187
   XY=              1.4314   XZ=              2.6534   YZ=             -2.2750
 Traceless Quadrupole moment (field-independent basis, Debye-Ang):
   XX=            -13.3719   YY=             16.3582   ZZ=             -2.9864
   XY=              1.4314   XZ=              2.6534   YZ=             -2.2750
 Octapole moment (field-independent basis, Debye-Ang**2):
  XXX=              7.2700  YYY=             -7.4155  ZZZ=             -8.8134  XYY=             17.5553
  XXY=            -22.4032  XXZ=              2.3447  XZZ=             -2.1147  YZZ=             -2.2276
  YYZ=             -3.2258  XYZ=              8.8984
 Hexadecapole moment (field-independent basis, Debye-Ang**3):
 XXXX=           -863.9877 YYYY=           -506.0123 ZZZZ=           -233.6407 XXXY=             -6.3078
 XXXZ=              6.8103 YYYX=             37.1308 YYYZ=            -22.9952 ZZZX=             -5.5737
 ZZZY=             -1.5115 XXYY=           -292.2057 XXZZ=           -174.3254 YYZZ=           -157.4155
 XXYZ=             -4.9507 YYXZ=              2.6153 ZZXY=              2.5562
 N-N= 7.243992368066D+02 E-N=-2.879397461017D+03  KE= 6.053376415865D+02

 Test job not archived.
 1\1\GINC-COMPUTE-10-1\SP\RB3LYP\6-31+G(d,p)\C6H10O5\ASAROTTI.IQUIR\16-
 Apr-2019\0\\# B3LYP/6-31+G** test scrf=(pcm,solvent=water,smd,dovacuum
 )\\comment\\0,1\C,0,2.101162,-0.832184,-0.337524\C,0,0.794329,-1.17500
 9,0.392281\C,0,0.959291,1.022528,0.40875\C,0,-1.228511,0.112405,-0.519
 03\C,0,-0.260865,1.309354,-0.51346\C,0,-0.439387,-1.222294,-0.553595\O
 ,0,0.700446,-0.052115,1.288302\O,0,2.07458,0.604578,-0.388565\O,0,-1.3
 8864,-2.215906,-0.165143\O,0,-2.055011,0.163706,0.63443\O,0,-0.987939,
 2.463117,-0.109778\H,0,2.160444,-1.236784,-1.352236\H,0,2.973239,-1.16
 559,0.236391\H,0,0.858954,-2.082048,0.996862\H,0,1.233559,1.90289,0.99
 6977\H,0,-1.854805,0.16756,-1.421883\H,0,0.130669,1.43819,-1.531605\H,
 0,-0.102841,-1.413496,-1.581522\H,0,-0.948877,-3.080478,-0.142416\H,0,
 -2.302324,-0.762905,0.80655\H,0,-0.451626,3.236816,-0.345615\\Version=
 EM64L-G09RevC.01\State=1-A\HF=-610.7985484\RMSD=4.464e-09\Dipole=1.583
 7664,-1.7539295,-1.5584206\Quadrupole=-9.9416842,12.1619644,-2.2202802
 ,1.063997,1.9727772,-1.6913765\PG=C01 [X(C6H10O5)]\\@


 WHAT THE SLIME CONTAINS, THE GLOWING REVEALS
 BY THE FLAME'S BRIGHT HUE WHEN YOU IGNITE IT.
   --  LEONARD THURNEYSSER, 1531-1596
 DESCRIBING HIS FLAME PHOTOLYSIS ANALYTIC METHOD
 Job cpu time:  0 days  0 hours 14 minutes 23.4 seconds.
 File lengths (MBytes):  RWF=     56 Int=      0 D2E=      0 Chk=      4 Scr=      1
 Normal termination of Gaussian 09 at Tue Apr 16 02:13:40 2019.
