 Entering Gaussian System, Link 0=g09
 Input=/home/mmarcarino.iquir/NMR/04_RRR_Levo13_OPTB_nmr.gjc
 Output=/home/mmarcarino.iquir/NMR/04_RRR_Levo13_OPTB_nmr.log
 Initial command:
 /share/apps/Gaussian09/EM64T.SSE4.2-enabled/g09/l1.exe /tmp/Gau-65446.inp -scrdir=/tmp/
 Entering Link 1 = /share/apps/Gaussian09/EM64T.SSE4.2-enabled/g09/l1.exe PID=     65447.
  
 Copyright (c) 1988,1990,1992,1993,1995,1998,2003,2009,2011,
            Gaussian, Inc.  All Rights Reserved.
  
 This is part of the Gaussian(R) 09 program.  It is based on
 the Gaussian(R) 03 system (copyright 2003, Gaussian, Inc.),
 the Gaussian(R) 98 system (copyright 1998, Gaussian, Inc.),
 the Gaussian(R) 94 system (copyright 1995, Gaussian, Inc.),
 the Gaussian 92(TM) system (copyright 1992, Gaussian, Inc.),
 the Gaussian 90(TM) system (copyright 1990, Gaussian, Inc.),
 the Gaussian 88(TM) system (copyright 1988, Gaussian, Inc.),
 the Gaussian 86(TM) system (copyright 1986, Carnegie Mellon
 University), and the Gaussian 82(TM) system (copyright 1983,
 Carnegie Mellon University). Gaussian is a federally registered
 trademark of Gaussian, Inc.
  
 This software contains proprietary and confidential information,
 including trade secrets, belonging to Gaussian, Inc.
  
 This software is provided under written license and may be
 used, copied, transmitted, or stored only in accord with that
 written license.
  
 The following legend is applicable only to US Government
 contracts under FAR:
  
                    RESTRICTED RIGHTS LEGEND
  
 Use, reproduction and disclosure by the US Government is
 subject to restrictions as set forth in subparagraphs (a)
 and (c) of the Commercial Computer Software - Restricted
 Rights clause in FAR 52.227-19.
  
 Gaussian, Inc.
 340 Quinnipiac St., Bldg. 40, Wallingford CT 06492
  
  
 ---------------------------------------------------------------
 Warning -- This program may not be used in any manner that
 competes with the business of Gaussian, Inc. or will provide
 assistance to any competitor of Gaussian, Inc.  The licensee
 of this program is prohibited from giving any competitor of
 Gaussian, Inc. access to this program.  By using this program,
 the user acknowledges that Gaussian, Inc. is engaged in the
 business of creating and licensing software in the field of
 computational chemistry and represents and warrants to the
 licensee that it is not a competitor of Gaussian, Inc. and that
 it will not use this program in any manner prohibited above.
 ---------------------------------------------------------------
  

 Cite this work as:
 Gaussian 09, Revision C.01,
 M. J. Frisch, G. W. Trucks, H. B. Schlegel, G. E. Scuseria, 
 M. A. Robb, J. R. Cheeseman, G. Scalmani, V. Barone, B. Mennucci, 
 G. A. Petersson, H. Nakatsuji, M. Caricato, X. Li, H. P. Hratchian, 
 A. F. Izmaylov, J. Bloino, G. Zheng, J. L. Sonnenberg, M. Hada, 
 M. Ehara, K. Toyota, R. Fukuda, J. Hasegawa, M. Ishida, T. Nakajima, 
 Y. Honda, O. Kitao, H. Nakai, T. Vreven, J. A. Montgomery, Jr., 
 J. E. Peralta, F. Ogliaro, M. Bearpark, J. J. Heyd, E. Brothers, 
 K. N. Kudin, V. N. Staroverov, T. Keith, R. Kobayashi, J. Normand, 
 K. Raghavachari, A. Rendell, J. C. Burant, S. S. Iyengar, J. Tomasi, 
 M. Cossi, N. Rega, J. M. Millam, M. Klene, J. E. Knox, J. B. Cross, 
 V. Bakken, C. Adamo, J. Jaramillo, R. Gomperts, R. E. Stratmann, 
 O. Yazyev, A. J. Austin, R. Cammi, C. Pomelli, J. W. Ochterski, 
 R. L. Martin, K. Morokuma, V. G. Zakrzewski, G. A. Voth, 
 P. Salvador, J. J. Dannenberg, S. Dapprich, A. D. Daniels, 
 O. Farkas, J. B. Foresman, J. V. Ortiz, J. Cioslowski, 
 and D. J. Fox, Gaussian, Inc., Wallingford CT, 2010.
 
 ******************************************
 Gaussian 09:  EM64L-G09RevC.01 23-Sep-2011
                12-Apr-2019 
 ******************************************
 %nprocshared=4
 Will use up to    4 processors via shared memory.
 ------------------------------------------------
 # mpw1pw91/6-31+g** nmr scrf=(pcm,solvent=water)
 ------------------------------------------------
 1/38=1/1;
 2/12=2,17=6,18=5,40=1/2;
 3/5=1,6=6,7=111,11=2,16=1,25=1,30=1,70=2201,72=1,74=-7/1,2,8,3;
 4//1;
 5/5=2,38=5,53=1/2;
 8/6=1,10=90,11=11/1;
 10/13=100,45=16/2;
 6/7=2,8=2,9=2,10=2,28=1/1;
 99/9=1/99;
 -------
 comment
 -------
 Charge =  0 Multiplicity = 1
 Symbolic Z-Matrix:
 6                     2.10116  -0.83218  -0.33752 
 6                     0.79433  -1.17501   0.39228 
 6                     0.95929   1.02253   0.40875 
 6                    -1.22851   0.11241  -0.51903 
 6                    -0.26087   1.30935  -0.51346 
 6                    -0.43939  -1.22229  -0.5536 
 8                     0.70045  -0.05212   1.2883 
 8                     2.07458   0.60458  -0.38857 
 8                    -1.38864  -2.21591  -0.16514 
 8                    -2.05501   0.16371   0.63443 
 8                    -0.98794   2.46312  -0.10978 
 1                     2.16044  -1.23678  -1.35224 
 1                     2.97324  -1.16559   0.23639 
 1                     0.85895  -2.08205   0.99686 
 1                     1.23356   1.90289   0.99698 
 1                    -1.85481   0.16756  -1.42188 
 1                     0.13067   1.43819  -1.53161 
 1                    -0.10284  -1.4135   -1.58152 
 1                    -0.94888  -3.08048  -0.14242 
 1                    -2.30232  -0.76291   0.80655 
 1                    -0.45163   3.23682  -0.34562 
 
                          Input orientation:                          
 ---------------------------------------------------------------------
 Center     Atomic      Atomic             Coordinates (Angstroms)
 Number     Number       Type             X           Y           Z
 ---------------------------------------------------------------------
      1          6           0        2.101162   -0.832184   -0.337524
      2          6           0        0.794329   -1.175009    0.392281
      3          6           0        0.959291    1.022528    0.408750
      4          6           0       -1.228511    0.112405   -0.519030
      5          6           0       -0.260865    1.309354   -0.513460
      6          6           0       -0.439387   -1.222294   -0.553595
      7          8           0        0.700446   -0.052115    1.288302
      8          8           0        2.074580    0.604578   -0.388565
      9          8           0       -1.388640   -2.215906   -0.165143
     10          8           0       -2.055011    0.163706    0.634430
     11          8           0       -0.987939    2.463117   -0.109778
     12          1           0        2.160444   -1.236784   -1.352236
     13          1           0        2.973239   -1.165590    0.236391
     14          1           0        0.858954   -2.082048    0.996862
     15          1           0        1.233559    1.902890    0.996977
     16          1           0       -1.854805    0.167560   -1.421883
     17          1           0        0.130669    1.438190   -1.531605
     18          1           0       -0.102841   -1.413496   -1.581522
     19          1           0       -0.948877   -3.080478   -0.142416
     20          1           0       -2.302324   -0.762905    0.806550
     21          1           0       -0.451626    3.236816   -0.345615
 ---------------------------------------------------------------------
                    Distance matrix (angstroms):
                    1          2          3          4          5
     1  C    0.000000
     2  C    1.535564   0.000000
     3  C    2.302336   2.203781   0.000000
     4  C    3.465821   2.565113   2.544716   0.000000
     5  C    3.193166   2.847079   1.556124   1.539174   0.000000
     6  C    2.579392   1.555305   2.814540   1.550914   2.538252
     7  O    2.283380   1.439638   1.412611   2.648470   2.454397
     8  O    1.437914   2.327164   1.433270   3.342105   2.442665
     9  O    3.758074   2.481842   4.040988   2.360489   3.717615
    10  O    4.382952   3.157457   3.142375   1.419931   2.418496
    11  O    4.522546   4.082218   2.477069   2.398168   1.422239
    12  H    1.094009   2.216625   3.106176   3.741598   3.612354
    13  H    1.095927   2.184500   2.978851   4.456303   4.140900
    14  H    2.210391   1.091977   3.161382   3.386896   3.877715
    15  H    3.164531   3.167340   1.093742   3.400868   2.206130
    16  H    4.221966   3.480171   3.464293   1.100195   2.160919
    17  H    3.234698   3.312188   2.150434   2.151833   1.098416
    18  H    2.596745   2.181213   3.320169   2.173568   2.929102
    19  H    3.794157   2.637324   4.558459   3.227156   4.458885
    20  H    4.550208   3.151303   3.739539   1.917395   3.194407
    21  H    4.803494   4.643393   2.731817   3.224216   1.944138
                    6          7          8          9         10
     6  C    0.000000
     7  O    2.461935   0.000000
     8  O    3.112029   2.265253   0.000000
     9  O    1.428020   3.340475   4.472017   0.000000
    10  O    2.437753   2.840188   4.277196   2.597291   0.000000
    11  O    3.752351   3.336415   3.593176   4.696476   2.641927
    12  H    2.719772   3.241524   2.080060   3.868316   4.866033
    13  H    3.503328   2.740790   2.081262   4.504485   5.216202
    14  H    2.197449   2.056864   3.258084   2.533743   3.696750
    15  H    3.869082   2.047224   2.076694   5.019057   3.737766
    16  H    2.165416   3.731309   4.086416   2.734523   2.066040
    17  H    2.891305   3.239989   2.404213   4.186638   3.330648
    18  H    1.098388   3.276357   3.199520   2.074433   3.347981
    19  H    1.970151   3.733390   4.772999   0.970254   3.514506
    20  H    2.351928   3.123129   4.738734   1.972363   0.974370
    21  H    4.463974   3.848899   3.648594   5.535589   3.602129
                   11         12         13         14         15
    11  O    0.000000
    12  H    5.014507   0.000000
    13  H    5.383148   1.785900   0.000000
    14  H    5.029333   2.815423   2.426605   0.000000
    15  H    2.544369   4.029326   3.608400   4.002507   0.000000
    16  H    2.782563   4.254322   5.276094   4.274991   4.289551
    17  H    2.079267   3.362684   4.240953   4.394954   2.797506
    18  H    4.239995   2.281723   3.581694   2.831974   4.408292
    19  H    5.543829   3.811922   4.381014   2.358616   5.558345
    20  H    3.602011   4.980082   5.321541   3.430749   4.432290
    21  H    0.970495   5.277243   5.607995   5.640051   2.534119
                   16         17         18         19         20
    16  H    0.000000
    17  H    2.359798   0.000000
    18  H    2.365291   2.861666   0.000000
    19  H    3.606590   4.849085   2.359159   0.000000
    20  H    2.456003   4.028802   3.311175   2.846665   0.000000
    21  H    3.542259   2.231747   4.824367   6.340091   4.555254
                   21
    21  H    0.000000
 Stoichiometry    C6H10O5
 Framework group  C1[X(C6H10O5)]
 Deg. of freedom    57
 Full point group                 C1      NOp   1
 Largest Abelian subgroup         C1      NOp   1
 Largest concise Abelian subgroup C1      NOp   1
                         Standard orientation:                         
 ---------------------------------------------------------------------
 Center     Atomic      Atomic             Coordinates (Angstroms)
 Number     Number       Type             X           Y           Z
 ---------------------------------------------------------------------
      1          6           0        2.101155   -0.832201   -0.337524
      2          6           0        0.794320   -1.175015    0.392281
      3          6           0        0.959299    1.022520    0.408750
      4          6           0       -1.228510    0.112415   -0.519030
      5          6           0       -0.260854    1.309356   -0.513460
      6          6           0       -0.439397   -1.222290   -0.553595
      7          8           0        0.700446   -0.052121    1.288302
      8          8           0        2.074585    0.604561   -0.388565
      9          8           0       -1.388658   -2.215895   -0.165143
     10          8           0       -2.055010    0.163723    0.634430
     11          8           0       -0.987919    2.463125   -0.109778
     12          1           0        2.160434   -1.236801   -1.352236
     13          1           0        2.973230   -1.165614    0.236391
     14          1           0        0.858937   -2.082055    0.996862
     15          1           0        1.233574    1.902880    0.996977
     16          1           0       -1.854804    0.167575   -1.421883
     17          1           0        0.130681    1.438189   -1.531605
     18          1           0       -0.102852   -1.413495   -1.581522
     19          1           0       -0.948902   -3.080470   -0.142416
     20          1           0       -2.302330   -0.762886    0.806550
     21          1           0       -0.451600    3.236820   -0.345615
 ---------------------------------------------------------------------
 Rotational constants (GHZ):      1.4187463      1.3564718      0.8380533
 Standard basis: 6-31+G(d,p) (6D, 7F)
 There are   259 symmetry adapted basis functions of A   symmetry.
 Integral buffers will be    131072 words long.
 Raffenetti 2 integral format.
 Two-electron integral symmetry is turned on.
   259 basis functions,   422 primitive gaussians,   259 cartesian basis functions
    43 alpha electrons       43 beta electrons
       nuclear repulsion energy       724.3939423547 Hartrees.
 NAtoms=   21 NActive=   21 NUniq=   21 SFac= 1.00D+00 NAtFMM=   60 NAOKFM=F Big=F
 ------------------------------------------------------------------------------
 Polarizable Continuum Model (PCM)
 =================================
 Model                : PCM.
 Atomic radii         : UFF (Universal Force Field).
 Polarization charges : Total charges.
 Charge compensation  : None.
 Solution method      : Matrix inversion.
 Cavity type          : Scaled VdW (van der Waals Surface) (Alpha=1.100).
 Cavity algorithm     : GePol (No added spheres)
                        Default sphere list used, NSphG=   21.
                        Lebedev-Laikov grids with approx.  5.0 points / Ang**2.
                        Smoothing algorithm: Karplus/York (Gamma=1.0000).
                        Polarization charges: spherical gaussians, with
                                              point-specific exponents (IZeta= 3).
                        Self-potential: point-specific (ISelfS= 7).
                        Self-field    : sphere-specific E.n sum rule (ISelfD= 2).
 Solvent              : Water, Eps=  78.355300 Eps(inf)=   1.777849
 ------------------------------------------------------------------------------
 One-electron integrals computed using PRISM.
 NBasis=   259 RedAO= T  NBF=   259
 NBsUse=   259 1.00D-06 NBFU=   259
 Harris functional with IExCor=  908 diagonalized for initial guess.
 ExpMin= 4.38D-02 ExpMax= 5.48D+03 ExpMxC= 8.25D+02 IAcc=2 IRadAn=         4 AccDes= 0.00D+00
 HarFok:  IExCor=  908 AccDes= 0.00D+00 IRadAn=         4 IDoV= 1
 ScaDFX=  1.000000  1.000000  1.000000  1.000000
 FoFCou: FMM=F IPFlag=           0 FMFlag=      100000 FMFlg1=           0
         NFxFlg=           0 DoJE=T BraDBF=F KetDBF=T FulRan=T
         Omega=  0.000000  0.000000  1.000000  0.000000  0.000000 ICntrl=     500 IOpCl=  0
         NMat0=    1 NMatS0=    1 NMatT0=    0 NMatD0=    1 NMtDS0=    0 NMtDT0=    0
         I1Cent=           4 NGrid=           0.
 Petite list used in FoFCou.
 Initial guess orbital symmetries:
       Occupied  (A) (A) (A) (A) (A) (A) (A) (A) (A) (A) (A) (A)
                 (A) (A) (A) (A) (A) (A) (A) (A) (A) (A) (A) (A)
                 (A) (A) (A) (A) (A) (A) (A) (A) (A) (A) (A) (A)
                 (A) (A) (A) (A) (A) (A) (A)
       Virtual   (A) (A) (A) (A) (A) (A) (A) (A) (A) (A) (A) (A)
                 (A) (A) (A) (A) (A) (A) (A) (A) (A) (A) (A) (A)
                 (A) (A) (A) (A) (A) (A) (A) (A) (A) (A) (A) (A)
                 (A) (A) (A) (A) (A) (A) (A) (A) (A) (A) (A) (A)
                 (A) (A) (A) (A) (A) (A) (A) (A) (A) (A) (A) (A)
                 (A) (A) (A) (A) (A) (A) (A) (A) (A) (A) (A) (A)
                 (A) (A) (A) (A) (A) (A) (A) (A) (A) (A) (A) (A)
                 (A) (A) (A) (A) (A) (A) (A) (A) (A) (A) (A) (A)
                 (A) (A) (A) (A) (A) (A) (A) (A) (A) (A) (A) (A)
                 (A) (A) (A) (A) (A) (A) (A) (A) (A) (A) (A) (A)
                 (A) (A) (A) (A) (A) (A) (A) (A) (A) (A) (A) (A)
                 (A) (A) (A) (A) (A) (A) (A) (A) (A) (A) (A) (A)
                 (A) (A) (A) (A) (A) (A) (A) (A) (A) (A) (A) (A)
                 (A) (A) (A) (A) (A) (A) (A) (A) (A) (A) (A) (A)
                 (A) (A) (A) (A) (A) (A) (A) (A) (A) (A) (A) (A)
                 (A) (A) (A) (A) (A) (A) (A) (A) (A) (A) (A) (A)
                 (A) (A) (A) (A) (A) (A) (A) (A) (A) (A) (A) (A)
                 (A) (A) (A) (A) (A) (A) (A) (A) (A) (A) (A) (A)
 The electronic state of the initial guess is 1-A.
 Requested convergence on RMS density matrix=1.00D-08 within 128 cycles.
 Requested convergence on MAX density matrix=1.00D-06.
 Requested convergence on             energy=1.00D-06.
 No special actions if energy rises.
 Error on total polarization charges =  0.01177
 SCF Done:  E(RmPW1PW91) =  -610.637230716     A.U. after   12 cycles
             Convg  =    0.4560D-08             -V/T =  2.0090
 Range of M.O.s used for correlation:     1   259
 NBasis=   259 NAE=    43 NBE=    43 NFC=     0 NFV=     0
 NROrb=    259 NOA=    43 NOB=    43 NVA=   216 NVB=   216

 **** Warning!!: The largest alpha MO coefficient is  0.51560324D+02

 NEqPCM:  Using equilibrium solvation (IEInf=0, Eps=  78.3553, EpsInf=   1.7778)
          Differentiating once with respect to magnetic field using GIAOs.
          Electric field/nuclear overlap derivatives assumed to be zero.
 FoFCou: FMM=F IPFlag=           0 FMFlag=    10101102 FMFlg1=           0
         NFxFlg=    40000000 DoJE=F BraDBF=F KetDBF=T FulRan=T
         Omega=  0.000000  0.000000  1.000000  0.000000  0.000000 ICntrl=    6100 IOpCl=  0
         NMat0=    1 NMatS0=    1 NMatT0=    0 NMatD0=    1 NMtDS0=    0 NMtDT0=    0
         I1Cent=           7 NGrid=        1548.
 Symmetry not used in FoFCou.
          There are     3 degrees of freedom in the 1st order CPHF.  IDoFFX=0.
      3 vectors produced by pass  0 Test12= 3.10D-13 3.33D-08 XBig12= 2.11D+01 7.39D-01.
 AX will form     3 AO Fock derivatives at one time.
      3 vectors produced by pass  1 Test12= 3.10D-13 3.33D-08 XBig12= 5.17D-02 3.75D-02.
      3 vectors produced by pass  2 Test12= 3.10D-13 3.33D-08 XBig12= 1.35D-04 1.93D-03.
      3 vectors produced by pass  3 Test12= 3.10D-13 3.33D-08 XBig12= 6.74D-07 1.54D-04.
      3 vectors produced by pass  4 Test12= 3.10D-13 3.33D-08 XBig12= 2.06D-09 7.00D-06.
      3 vectors produced by pass  5 Test12= 3.10D-13 3.33D-08 XBig12= 6.72D-12 3.79D-07.
 Inverted reduced A of dimension    18 with in-core refinement.
 Calculating GIAO nuclear magnetic shielding tensors.
 SCF GIAO Magnetic shielding tensor (ppm):
      1  C    Isotropic =   128.0132   Anisotropy =    48.2011
   XX=   115.8245   YX=    -0.7306   ZX=   -10.1214
   XY=    11.3297   YY=   159.4652   ZY=    -3.5366
   XZ=    -3.7478   YZ=     2.0723   ZZ=   108.7500
   Eigenvalues:   104.4167   119.4757   160.1473
      2  C    Isotropic =   115.2689   Anisotropy =    37.0634
   XX=   109.9705   YX=     7.9989   ZX=    -3.3680
   XY=     1.2694   YY=   127.5459   ZY=    19.3778
   XZ=     2.2048   YZ=    19.3311   ZZ=   108.2901
   Eigenvalues:    95.6852   110.1436   139.9778
      3  C    Isotropic =    89.1269   Anisotropy =    25.4739
   XX=    96.3363   YX=   -10.6944   ZX=   -14.8198
   XY=    -8.3837   YY=    88.3936   ZY=    -1.7904
   XZ=   -11.6754   YZ=   -10.4697   ZZ=    82.6508
   Eigenvalues:    69.0171    92.2541   106.1095
      4  C    Isotropic =   128.8434   Anisotropy =    46.4033
   XX=   128.3782   YX=     0.2868   ZX=   -29.7109
   XY=    -0.0891   YY=   114.2149   ZY=     1.3574
   XZ=   -14.8467   YZ=     1.3160   ZZ=   143.9369
   Eigenvalues:   112.1943   114.5569   159.7789
      5  C    Isotropic =   120.3278   Anisotropy =    40.3746
   XX=   130.5533   YX=   -28.7819   ZX=    -1.8703
   XY=   -13.9861   YY=   117.7335   ZY=     0.6095
   XZ=    -2.2937   YZ=    11.0829   ZZ=   112.6965
   Eigenvalues:   100.7718   112.9674   147.2442
      6  C    Isotropic =   122.1490   Anisotropy =    40.7417
   XX=   137.1738   YX=    26.1255   ZX=    -1.8376
   XY=    12.9718   YY=   115.4280   ZY=    -1.8839
   XZ=    -3.4304   YZ=    -7.9110   ZZ=   113.8453
   Eigenvalues:   103.1177   114.0192   149.3102
      7  O    Isotropic =   243.1443   Anisotropy =    63.4617
   XX=   246.9696   YX=   -22.6177   ZX=   -39.5004
   XY=   -10.6364   YY=   249.0859   ZY=   -19.7043
   XZ=   -49.8188   YZ=   -13.5233   ZZ=   233.3773
   Eigenvalues:   186.2530   257.7277   285.4521
      8  O    Isotropic =   255.1986   Anisotropy =   130.4277
   XX=   276.1601   YX=   -19.1783   ZX=   -75.0643
   XY=   -17.8160   YY=   245.2931   ZY=   -24.0718
   XZ=   -82.8551   YZ=   -56.1700   ZZ=   244.1427
   Eigenvalues:   158.3760   265.0695   342.1504
      9  O    Isotropic =   289.7623   Anisotropy =    43.2511
   XX=   304.3556   YX=   -12.8333   ZX=    25.4336
   XY=     6.5484   YY=   306.7029   ZY=   -16.5503
   XZ=    22.1766   YZ=    -3.3041   ZZ=   258.2283
   Eigenvalues:   247.0835   303.6070   318.5963
     10  O    Isotropic =   320.0185   Anisotropy =    36.7832
   XX=   296.7565   YX=     5.4785   ZX=    30.9957
   XY=    11.2449   YY=   331.1446   ZY=   -12.2685
   XZ=    -7.7929   YZ=   -13.1639   ZZ=   332.1543
   Eigenvalues:   289.8324   325.6824   344.5406
     11  O    Isotropic =   298.4064   Anisotropy =    39.0428
   XX=   300.6997   YX=    22.0479   ZX=    14.6116
   XY=    -0.9488   YY=   319.1439   ZY=     5.7154
   XZ=     6.5333   YZ=    -4.7794   ZZ=   275.3755
   Eigenvalues:   271.3195   299.4648   324.4349
     12  H    Isotropic =    27.8968   Anisotropy =     7.6764
   XX=    26.7170   YX=    -1.2322   ZX=    -1.5818
   XY=    -1.5788   YY=    28.4811   ZY=     3.9164
   XZ=    -2.9117   YZ=     3.0052   ZZ=    28.4924
   Eigenvalues:    24.7041    25.9719    33.0145
     13  H    Isotropic =    27.9149   Anisotropy =    10.7790
   XX=    31.5293   YX=    -3.8321   ZX=     1.5355
   XY=    -4.1203   YY=    28.7316   ZY=    -1.9725
   XZ=     2.9510   YZ=    -1.9394   ZZ=    23.4838
   Eigenvalues:    22.7028    25.9410    35.1009
     14  H    Isotropic =    27.3271   Anisotropy =     6.4155
   XX=    25.9129   YX=    -1.2814   ZX=     1.7795
   XY=     0.3831   YY=    30.6414   ZY=    -2.3972
   XZ=     1.1439   YZ=    -2.0110   ZZ=    25.4270
   Eigenvalues:    23.8566    26.5205    31.6041
     15  H    Isotropic =    26.2573   Anisotropy =     6.1507
   XX=    25.4533   YX=     1.2749   ZX=     0.6527
   XY=     0.7942   YY=    28.9584   ZY=     2.0834
   XZ=     0.5317   YZ=     2.9581   ZZ=    24.3602
   Eigenvalues:    23.2399    25.1742    30.3578
     16  H    Isotropic =    27.2049   Anisotropy =     9.1009
   XX=    25.7282   YX=    -0.2364   ZX=     1.1209
   XY=    -0.2854   YY=    23.3894   ZY=    -0.4061
   XZ=     3.5098   YZ=    -1.0306   ZZ=    32.4970
   Eigenvalues:    23.3297    25.0128    33.2722
     17  H    Isotropic =    28.0374   Anisotropy =     4.3942
   XX=    26.9654   YX=    -1.5655   ZX=    -1.8140
   XY=    -2.7329   YY=    27.9714   ZY=    -1.3364
   XZ=    -2.2538   YZ=    -3.2105   ZZ=    29.1754
   Eigenvalues:    23.6210    29.5244    30.9669
     18  H    Isotropic =    27.8682   Anisotropy =     5.6562
   XX=    27.3195   YX=     1.4724   ZX=    -1.8731
   XY=     2.7857   YY=    25.7909   ZY=     1.3497
   XZ=    -1.5576   YZ=     3.3241   ZZ=    30.4943
   Eigenvalues:    23.1494    28.8163    31.6390
     19  H    Isotropic =    29.4512   Anisotropy =    18.6004
   XX=    26.7749   YX=    -3.6504   ZX=    -1.0748
   XY=    -3.3526   YY=    41.0057   ZY=    -0.6931
   XZ=     0.4336   YZ=    -1.1209   ZZ=    20.5730
   Eigenvalues:    20.4932    26.0090    41.8515
     20  H    Isotropic =    28.3177   Anisotropy =    17.7733
   XX=    25.1759   YX=     3.4345   ZX=    -7.1425
   XY=     3.2305   YY=    38.7484   ZY=    -0.9321
   XZ=    -5.8567   YZ=    -2.8271   ZZ=    21.0287
   Eigenvalues:    16.2705    28.5160    40.1665
     21  H    Isotropic =    29.5533   Anisotropy =    19.1913
   XX=    27.2455   YX=     4.5126   ZX=    -3.3441
   XY=     5.0710   YY=    40.0493   ZY=    -2.9692
   XZ=    -1.9831   YZ=    -3.3292   ZZ=    21.3650
   Eigenvalues:    20.2451    26.0672    42.3475
 End of Minotr Frequency-dependent properties file   721 does not exist.
 End of Minotr Frequency-dependent properties file   722 does not exist.

 **********************************************************************

            Population analysis using the SCF density.

 **********************************************************************

 Orbital symmetries:
       Occupied  (A) (A) (A) (A) (A) (A) (A) (A) (A) (A) (A) (A)
                 (A) (A) (A) (A) (A) (A) (A) (A) (A) (A) (A) (A)
                 (A) (A) (A) (A) (A) (A) (A) (A) (A) (A) (A) (A)
                 (A) (A) (A) (A) (A) (A) (A)
       Virtual   (A) (A) (A) (A) (A) (A) (A) (A) (A) (A) (A) (A)
                 (A) (A) (A) (A) (A) (A) (A) (A) (A) (A) (A) (A)
                 (A) (A) (A) (A) (A) (A) (A) (A) (A) (A) (A) (A)
                 (A) (A) (A) (A) (A) (A) (A) (A) (A) (A) (A) (A)
                 (A) (A) (A) (A) (A) (A) (A) (A) (A) (A) (A) (A)
                 (A) (A) (A) (A) (A) (A) (A) (A) (A) (A) (A) (A)
                 (A) (A) (A) (A) (A) (A) (A) (A) (A) (A) (A) (A)
                 (A) (A) (A) (A) (A) (A) (A) (A) (A) (A) (A) (A)
                 (A) (A) (A) (A) (A) (A) (A) (A) (A) (A) (A) (A)
                 (A) (A) (A) (A) (A) (A) (A) (A) (A) (A) (A) (A)
                 (A) (A) (A) (A) (A) (A) (A) (A) (A) (A) (A) (A)
                 (A) (A) (A) (A) (A) (A) (A) (A) (A) (A) (A) (A)
                 (A) (A) (A) (A) (A) (A) (A) (A) (A) (A) (A) (A)
                 (A) (A) (A) (A) (A) (A) (A) (A) (A) (A) (A) (A)
                 (A) (A) (A) (A) (A) (A) (A) (A) (A) (A) (A) (A)
                 (A) (A) (A) (A) (A) (A) (A) (A) (A) (A) (A) (A)
                 (A) (A) (A) (A) (A) (A) (A) (A) (A) (A) (A) (A)
                 (A) (A) (A) (A) (A) (A) (A) (A) (A) (A) (A) (A)
 The electronic state is 1-A.
 Alpha  occ. eigenvalues --  -19.27496 -19.27481 -19.26700 -19.26372 -19.24944
 Alpha  occ. eigenvalues --  -10.35641 -10.32153 -10.31963 -10.31428 -10.31249
 Alpha  occ. eigenvalues --  -10.30625  -1.14218  -1.08872  -1.07137  -1.04773
 Alpha  occ. eigenvalues --   -1.03818  -0.82037  -0.80982  -0.70380  -0.68282
 Alpha  occ. eigenvalues --   -0.65047  -0.59407  -0.57115  -0.56760  -0.54495
 Alpha  occ. eigenvalues --   -0.53930  -0.49742  -0.48213  -0.47524  -0.46475
 Alpha  occ. eigenvalues --   -0.44867  -0.42986  -0.42049  -0.40189  -0.37785
 Alpha  occ. eigenvalues --   -0.37591  -0.36667  -0.35358  -0.34518  -0.31922
 Alpha  occ. eigenvalues --   -0.30981  -0.28757  -0.26770
 Alpha virt. eigenvalues --    0.00256   0.01560   0.01700   0.02480   0.03652
 Alpha virt. eigenvalues --    0.04406   0.05013   0.05236   0.05811   0.08240
 Alpha virt. eigenvalues --    0.08554   0.08919   0.09597   0.10622   0.11350
 Alpha virt. eigenvalues --    0.12037   0.13000   0.13187   0.13653   0.14146
 Alpha virt. eigenvalues --    0.14749   0.15697   0.16237   0.16907   0.17213
 Alpha virt. eigenvalues --    0.18252   0.19234   0.19669   0.20445   0.20849
 Alpha virt. eigenvalues --    0.21472   0.21926   0.22725   0.24224   0.24532
 Alpha virt. eigenvalues --    0.24940   0.25067   0.25856   0.27062   0.27616
 Alpha virt. eigenvalues --    0.28416   0.28969   0.29758   0.30111   0.30600
 Alpha virt. eigenvalues --    0.31264   0.32385   0.32704   0.33539   0.34271
 Alpha virt. eigenvalues --    0.35292   0.35633   0.36092   0.36836   0.37217
 Alpha virt. eigenvalues --    0.37765   0.38854   0.40029   0.41076   0.41704
 Alpha virt. eigenvalues --    0.42210   0.43146   0.43173   0.44169   0.46129
 Alpha virt. eigenvalues --    0.50664   0.64003   0.67795   0.68415   0.70129
 Alpha virt. eigenvalues --    0.71968   0.72817   0.75255   0.76135   0.78326
 Alpha virt. eigenvalues --    0.79477   0.80963   0.83266   0.84406   0.85595
 Alpha virt. eigenvalues --    0.87187   0.90778   0.93357   0.95121   0.97996
 Alpha virt. eigenvalues --    1.01157   1.01845   1.03314   1.05983   1.06528
 Alpha virt. eigenvalues --    1.07175   1.08289   1.11723   1.12357   1.16038
 Alpha virt. eigenvalues --    1.16670   1.23073   1.24289   1.26371   1.27376
 Alpha virt. eigenvalues --    1.28688   1.29949   1.31913   1.32367   1.34051
 Alpha virt. eigenvalues --    1.35807   1.36389   1.38921   1.41168   1.43018
 Alpha virt. eigenvalues --    1.44519   1.47369   1.47520   1.48378   1.50570
 Alpha virt. eigenvalues --    1.52875   1.55499   1.56081   1.58422   1.60165
 Alpha virt. eigenvalues --    1.63176   1.63786   1.65063   1.66256   1.68932
 Alpha virt. eigenvalues --    1.70602   1.72760   1.76543   1.77551   1.78742
 Alpha virt. eigenvalues --    1.80854   1.81183   1.83370   1.86974   1.89316
 Alpha virt. eigenvalues --    1.89915   1.93165   1.95038   1.95600   1.97493
 Alpha virt. eigenvalues --    1.99421   2.02160   2.03380   2.04838   2.07842
 Alpha virt. eigenvalues --    2.10084   2.13322   2.14583   2.15158   2.16017
 Alpha virt. eigenvalues --    2.17929   2.21748   2.24692   2.26375   2.32142
 Alpha virt. eigenvalues --    2.35830   2.37074   2.38900   2.42693   2.43983
 Alpha virt. eigenvalues --    2.45164   2.47158   2.48619   2.53556   2.56120
 Alpha virt. eigenvalues --    2.58764   2.60063   2.61457   2.63087   2.63930
 Alpha virt. eigenvalues --    2.65496   2.66546   2.68508   2.69170   2.71087
 Alpha virt. eigenvalues --    2.71776   2.73789   2.74564   2.76671   2.79331
 Alpha virt. eigenvalues --    2.81126   2.83471   2.85035   2.86333   2.91823
 Alpha virt. eigenvalues --    2.93594   2.94920   2.96891   3.02684   3.03586
 Alpha virt. eigenvalues --    3.06806   3.10153   3.12381   3.13556   3.22850
 Alpha virt. eigenvalues --    3.34497   3.41720   3.45169   3.47219   3.47915
 Alpha virt. eigenvalues --    3.49308   3.52617   3.53777   3.54795   3.60378
 Alpha virt. eigenvalues --    4.28130   4.36002   4.43369   4.45961   4.48713
 Alpha virt. eigenvalues --    4.56689   4.63955   4.77939   4.89125   4.98041
 Alpha virt. eigenvalues --    5.08314
          Condensed to atoms (all electrons):
              1          2          3          4          5          6
     1  C    5.571151  -0.082404  -0.333565   0.133863   0.073502  -0.198859
     2  C   -0.082404   6.371663  -0.176980  -0.170800  -0.040315  -0.227772
     3  C   -0.333565  -0.176980   6.340142  -0.348885  -0.416602   0.196016
     4  C    0.133863  -0.170800  -0.348885   5.990423  -0.100263  -0.033919
     5  C    0.073502  -0.040315  -0.416602  -0.100263   6.462622  -0.297083
     6  C   -0.198859  -0.227772   0.196016  -0.033919  -0.297083   6.258226
     7  O   -0.058421   0.144701   0.291650   0.024727  -0.086758  -0.164377
     8  O    0.187932  -0.126647   0.277056  -0.008303  -0.123168   0.050130
     9  O    0.024528  -0.068558  -0.012404  -0.086630   0.033311   0.167452
    10  O    0.011845   0.006990   0.020655   0.284522  -0.170444  -0.060365
    11  O    0.003646  -0.005384  -0.128808  -0.123677   0.306397   0.029152
    12  H    0.466682  -0.135606   0.009252   0.007477   0.013419   0.000518
    13  H    0.376913  -0.009476  -0.008451  -0.006096   0.002541   0.023577
    14  H    0.018244   0.321011  -0.005345   0.023892   0.007195  -0.020428
    15  H    0.014400   0.010804   0.378932   0.020177  -0.050057   0.006654
    16  H   -0.004986   0.025825   0.043064   0.370378  -0.098493  -0.009503
    17  H    0.019886  -0.001757  -0.059871  -0.008952   0.376624  -0.016725
    18  H    0.053997  -0.099145  -0.006270  -0.039595   0.011833   0.368588
    19  H    0.000087  -0.046700   0.000036   0.010757  -0.003101   0.047207
    20  H    0.001652  -0.003923  -0.002112  -0.008996   0.026760  -0.033009
    21  H    0.000519  -0.000439  -0.030321   0.012875   0.023593  -0.001177
              7          8          9         10         11         12
     1  C   -0.058421   0.187932   0.024528   0.011845   0.003646   0.466682
     2  C    0.144701  -0.126647  -0.068558   0.006990  -0.005384  -0.135606
     3  C    0.291650   0.277056  -0.012404   0.020655  -0.128808   0.009252
     4  C    0.024727  -0.008303  -0.086630   0.284522  -0.123677   0.007477
     5  C   -0.086758  -0.123168   0.033311  -0.170444   0.306397   0.013419
     6  C   -0.164377   0.050130   0.167452  -0.060365   0.029152   0.000518
     7  O    8.298475  -0.085088   0.017907   0.008286   0.011209   0.013781
     8  O   -0.085088   8.346609  -0.000670   0.000744   0.003300  -0.052840
     9  O    0.017907  -0.000670   8.329940  -0.016750  -0.000610   0.000296
    10  O    0.008286   0.000744  -0.016750   8.298178   0.008173  -0.000090
    11  O    0.011209   0.003300  -0.000610   0.008173   8.269493  -0.000033
    12  H    0.013781  -0.052840   0.000296  -0.000090  -0.000033   0.535998
    13  H   -0.006310  -0.045988  -0.000141   0.000040   0.000039  -0.038681
    14  H   -0.037724   0.008913  -0.003180  -0.001035   0.000066   0.002089
    15  H   -0.053752  -0.038234   0.000030  -0.001102  -0.000519  -0.000266
    16  H    0.001381  -0.001537   0.001381  -0.056584   0.003439  -0.000007
    17  H    0.008459  -0.005499  -0.000077   0.006463  -0.040390  -0.000026
    18  H    0.007988  -0.000521  -0.037757   0.006486  -0.000666   0.002394
    19  H   -0.001064   0.000061   0.242656   0.001071   0.000019   0.000067
    20  H   -0.003284   0.000101   0.022600   0.244695  -0.000442  -0.000002
    21  H   -0.000931   0.000733  -0.000007  -0.000192   0.236410  -0.000001
             13         14         15         16         17         18
     1  C    0.376913   0.018244   0.014400  -0.004986   0.019886   0.053997
     2  C   -0.009476   0.321011   0.010804   0.025825  -0.001757  -0.099145
     3  C   -0.008451  -0.005345   0.378932   0.043064  -0.059871  -0.006270
     4  C   -0.006096   0.023892   0.020177   0.370378  -0.008952  -0.039595
     5  C    0.002541   0.007195  -0.050057  -0.098493   0.376624   0.011833
     6  C    0.023577  -0.020428   0.006654  -0.009503  -0.016725   0.368588
     7  O   -0.006310  -0.037724  -0.053752   0.001381   0.008459   0.007988
     8  O   -0.045988   0.008913  -0.038234  -0.001537  -0.005499  -0.000521
     9  O   -0.000141  -0.003180   0.000030   0.001381  -0.000077  -0.037757
    10  O    0.000040  -0.001035  -0.001102  -0.056584   0.006463   0.006486
    11  O    0.000039   0.000066  -0.000519   0.003439  -0.040390  -0.000666
    12  H   -0.038681   0.002089  -0.000266  -0.000007  -0.000026   0.002394
    13  H    0.537701  -0.003079   0.000400   0.000001  -0.000044   0.000107
    14  H   -0.003079   0.496434   0.000028  -0.000144   0.000025   0.001858
    15  H    0.000400   0.000028   0.528172  -0.000156   0.000852   0.000023
    16  H    0.000001  -0.000144  -0.000156   0.567144  -0.004376  -0.004249
    17  H   -0.000044   0.000025   0.000852  -0.004376   0.539803   0.001986
    18  H    0.000107   0.001858   0.000023  -0.004249   0.001986   0.555031
    19  H   -0.000028   0.002597   0.000000  -0.000202   0.000002  -0.004009
    20  H    0.000001  -0.000088   0.000011   0.000237  -0.000158   0.000660
    21  H    0.000000   0.000000   0.002218  -0.000139  -0.007917   0.000001
             19         20         21
     1  C    0.000087   0.001652   0.000519
     2  C   -0.046700  -0.003923  -0.000439
     3  C    0.000036  -0.002112  -0.030321
     4  C    0.010757  -0.008996   0.012875
     5  C   -0.003101   0.026760   0.023593
     6  C    0.047207  -0.033009  -0.001177
     7  O   -0.001064  -0.003284  -0.000931
     8  O    0.000061   0.000101   0.000733
     9  O    0.242656   0.022600  -0.000007
    10  O    0.001071   0.244695  -0.000192
    11  O    0.000019  -0.000442   0.236410
    12  H    0.000067  -0.000002  -0.000001
    13  H   -0.000028   0.000001   0.000000
    14  H    0.002597  -0.000088   0.000000
    15  H    0.000000   0.000011   0.002218
    16  H   -0.000202   0.000237  -0.000139
    17  H    0.000002  -0.000158  -0.007917
    18  H   -0.004009   0.000660   0.000001
    19  H    0.350291  -0.000820   0.000000
    20  H   -0.000820   0.352161  -0.000003
    21  H    0.000000  -0.000003   0.367559
 Mulliken atomic charges:
              1
     1  C   -0.280613
     2  C    0.314912
     3  C   -0.027190
     4  C    0.057024
     5  C    0.048486
     6  C   -0.084302
     7  O   -0.330854
     8  O   -0.387085
     9  O   -0.613317
    10  O   -0.591585
    11  O   -0.570811
    12  H    0.175579
    13  H    0.176975
    14  H    0.188670
    15  H    0.181385
    16  H    0.167527
    17  H    0.191690
    18  H    0.181259
    19  H    0.401073
    20  H    0.403960
    21  H    0.397219
 Sum of Mulliken atomic charges =   0.00000
 Mulliken charges with hydrogens summed into heavy atoms:
              1
     1  C    0.071940
     2  C    0.503582
     3  C    0.154195
     4  C    0.224551
     5  C    0.240176
     6  C    0.096957
     7  O   -0.330854
     8  O   -0.387085
     9  O   -0.212244
    10  O   -0.187625
    11  O   -0.173592
 Sum of Mulliken charges with hydrogens summed into heavy atoms =   0.00000
 Electronic spatial extent (au):  <R**2>=           1458.9632
 Charge=              0.0000 electrons
 Dipole moment (field-independent basis, Debye):
    X=              3.6026    Y=             -4.0158    Z=             -3.4262  Tot=              6.3910
 Quadrupole moment (field-independent basis, Debye-Ang):
   XX=            -75.2154   YY=            -48.0274   ZZ=            -66.0811
   XY=              1.2982   XZ=              2.3678   YZ=             -2.0637
 Traceless Quadrupole moment (field-independent basis, Debye-Ang):
   XX=            -12.1075   YY=             15.0806   ZZ=             -2.9731
   XY=              1.2982   XZ=              2.3678   YZ=             -2.0637
 Octapole moment (field-independent basis, Debye-Ang**2):
  XXX=              5.9467  YYY=             -6.5391  ZZZ=             -7.1091  XYY=             15.4120
  XXY=            -20.6483  XXZ=              2.8089  XZZ=             -2.2683  YZZ=             -1.9559
  YYZ=             -2.3073  XYZ=              8.1974
 Hexadecapole moment (field-independent basis, Debye-Ang**3):
 XXXX=           -846.6584 YYYY=           -513.4519 ZZZZ=           -229.6349 XXXY=             -5.8195
 XXXZ=              5.1351 YYYX=             35.7420 YYYZ=            -21.2411 ZZZX=             -6.0492
 ZZZY=             -1.1861 XXYY=           -286.2177 XXZZ=           -171.5526 YYZZ=           -156.5823
 XXYZ=             -4.7058 YYXZ=              2.1524 ZZXY=              2.5173
 N-N= 7.243939423547D+02 E-N=-2.879150180447D+03  KE= 6.051934220821D+02
 1\1\GINC-COMPUTE-8-20\SP\RmPW1PW91\6-31+G(d,p)\C6H10O5\MMARCARINO.IQUI
 R\12-Apr-2019\0\\# mpw1pw91/6-31+g** nmr scrf=(pcm,solvent=water)\\com
 ment\\0,1\C,0,2.101162,-0.832184,-0.337524\C,0,0.794329,-1.175009,0.39
 2281\C,0,0.959291,1.022528,0.40875\C,0,-1.228511,0.112405,-0.51903\C,0
 ,-0.260865,1.309354,-0.51346\C,0,-0.439387,-1.222294,-0.553595\O,0,0.7
 00446,-0.052115,1.288302\O,0,2.07458,0.604578,-0.388565\O,0,-1.38864,-
 2.215906,-0.165143\O,0,-2.055011,0.163706,0.63443\O,0,-0.987939,2.4631
 17,-0.109778\H,0,2.160444,-1.236784,-1.352236\H,0,2.973239,-1.16559,0.
 236391\H,0,0.858954,-2.082048,0.996862\H,0,1.233559,1.90289,0.996977\H
 ,0,-1.854805,0.16756,-1.421883\H,0,0.130669,1.43819,-1.531605\H,0,-0.1
 02841,-1.413496,-1.581522\H,0,-0.948877,-3.080478,-0.142416\H,0,-2.302
 324,-0.762905,0.80655\H,0,-0.451626,3.236816,-0.345615\\Version=EM64L-
 G09RevC.01\State=1-A\HF=-610.6372307\RMSD=4.560e-09\Dipole=1.4173912,-
 1.5799397,-1.3479651\Quadrupole=-9.0016097,11.2120477,-2.210438,0.9650
 09,1.7604287,-1.5342875\PG=C01 [X(C6H10O5)]\\@


 WE TEND TO MEET ANY NEW SITUATION BY REORGANIZING. IT CAN BE A
 WONDERFUL METHOD FOR CREATING THE ILLUSION OF PROGRESS WHILE PRODUCING
 CONFUSION, INEFFICIENCY, AND DEMORALIZATION.
     -- PETRONIUS ARBITER, 210 B.C.
 Job cpu time:  0 days  0 hours 19 minutes  8.9 seconds.
 File lengths (MBytes):  RWF=     84 Int=      0 D2E=      0 Chk=      5 Scr=      1
 Normal termination of Gaussian 09 at Fri Apr 12 11:37:47 2019.
