 Entering Gaussian System, Link 0=g09
 Input=/home/asarotti.iquir/SCF3/04_RRR_Levo04_OPTB_energy_b3lyp_smd.gjc
 Output=/home/asarotti.iquir/SCF3/04_RRR_Levo04_OPTB_energy_b3lyp_smd.log
 Initial command:
 /share/apps/Gaussian09/EM64T.SSE4.2-enabled/g09/l1.exe /tmp/Gau-26565.inp -scrdir=/tmp/
 Entering Link 1 = /share/apps/Gaussian09/EM64T.SSE4.2-enabled/g09/l1.exe PID=     26566.
  
 Copyright (c) 1988,1990,1992,1993,1995,1998,2003,2009,2011,
            Gaussian, Inc.  All Rights Reserved.
  
 This is part of the Gaussian(R) 09 program.  It is based on
 the Gaussian(R) 03 system (copyright 2003, Gaussian, Inc.),
 the Gaussian(R) 98 system (copyright 1998, Gaussian, Inc.),
 the Gaussian(R) 94 system (copyright 1995, Gaussian, Inc.),
 the Gaussian 92(TM) system (copyright 1992, Gaussian, Inc.),
 the Gaussian 90(TM) system (copyright 1990, Gaussian, Inc.),
 the Gaussian 88(TM) system (copyright 1988, Gaussian, Inc.),
 the Gaussian 86(TM) system (copyright 1986, Carnegie Mellon
 University), and the Gaussian 82(TM) system (copyright 1983,
 Carnegie Mellon University). Gaussian is a federally registered
 trademark of Gaussian, Inc.
  
 This software contains proprietary and confidential information,
 including trade secrets, belonging to Gaussian, Inc.
  
 This software is provided under written license and may be
 used, copied, transmitted, or stored only in accord with that
 written license.
  
 The following legend is applicable only to US Government
 contracts under FAR:
  
                    RESTRICTED RIGHTS LEGEND
  
 Use, reproduction and disclosure by the US Government is
 subject to restrictions as set forth in subparagraphs (a)
 and (c) of the Commercial Computer Software - Restricted
 Rights clause in FAR 52.227-19.
  
 Gaussian, Inc.
 340 Quinnipiac St., Bldg. 40, Wallingford CT 06492
  
  
 ---------------------------------------------------------------
 Warning -- This program may not be used in any manner that
 competes with the business of Gaussian, Inc. or will provide
 assistance to any competitor of Gaussian, Inc.  The licensee
 of this program is prohibited from giving any competitor of
 Gaussian, Inc. access to this program.  By using this program,
 the user acknowledges that Gaussian, Inc. is engaged in the
 business of creating and licensing software in the field of
 computational chemistry and represents and warrants to the
 licensee that it is not a competitor of Gaussian, Inc. and that
 it will not use this program in any manner prohibited above.
 ---------------------------------------------------------------
  

 Cite this work as:
 Gaussian 09, Revision C.01,
 M. J. Frisch, G. W. Trucks, H. B. Schlegel, G. E. Scuseria, 
 M. A. Robb, J. R. Cheeseman, G. Scalmani, V. Barone, B. Mennucci, 
 G. A. Petersson, H. Nakatsuji, M. Caricato, X. Li, H. P. Hratchian, 
 A. F. Izmaylov, J. Bloino, G. Zheng, J. L. Sonnenberg, M. Hada, 
 M. Ehara, K. Toyota, R. Fukuda, J. Hasegawa, M. Ishida, T. Nakajima, 
 Y. Honda, O. Kitao, H. Nakai, T. Vreven, J. A. Montgomery, Jr., 
 J. E. Peralta, F. Ogliaro, M. Bearpark, J. J. Heyd, E. Brothers, 
 K. N. Kudin, V. N. Staroverov, T. Keith, R. Kobayashi, J. Normand, 
 K. Raghavachari, A. Rendell, J. C. Burant, S. S. Iyengar, J. Tomasi, 
 M. Cossi, N. Rega, J. M. Millam, M. Klene, J. E. Knox, J. B. Cross, 
 V. Bakken, C. Adamo, J. Jaramillo, R. Gomperts, R. E. Stratmann, 
 O. Yazyev, A. J. Austin, R. Cammi, C. Pomelli, J. W. Ochterski, 
 R. L. Martin, K. Morokuma, V. G. Zakrzewski, G. A. Voth, 
 P. Salvador, J. J. Dannenberg, S. Dapprich, A. D. Daniels, 
 O. Farkas, J. B. Foresman, J. V. Ortiz, J. Cioslowski, 
 and D. J. Fox, Gaussian, Inc., Wallingford CT, 2010.
 
 ******************************************
 Gaussian 09:  EM64L-G09RevC.01 23-Sep-2011
                15-Apr-2019 
 ******************************************
 %nprocshared=4
 Will use up to    4 processors via shared memory.
 -----------------------------------------------------------
 # B3LYP/6-31+G** test scrf=(pcm,solvent=water,smd,dovacuum)
 -----------------------------------------------------------
 1/38=1/1;
 2/12=2,17=6,18=5,40=1/2;
 3/5=1,6=6,7=111,11=2,16=1,25=1,30=1,70=32101,72=1,74=-5/1,2,3;
 4//1;
 5/5=2,38=5,53=1/2;
 6/7=2,8=2,9=2,10=2,28=1/1;
 99/5=1,9=1/99;
 -------
 comment
 -------
 Charge =  0 Multiplicity = 1
 Symbolic Z-Matrix:
 6                     2.03065   0.61715   0.73838 
 6                     1.03822   1.09954  -0.33054 
 6                     0.99825  -1.11834  -0.37307 
 6                    -0.83915  -0.01367   0.94663 
 6                    -0.45245  -1.26319   0.12464 
 6                    -0.40207   1.26761   0.19758 
 8                     1.06754  -0.00841  -1.25035 
 8                     1.87099  -0.81704   0.71594 
 8                    -1.31728   1.42994  -0.89068 
 8                    -2.22301  -0.01302   1.24461 
 8                    -1.34067  -1.42962  -0.97972 
 1                     1.81565   0.99743   1.74187 
 1                     3.06115   0.87123   0.46984 
 1                     1.3742    1.98955  -0.86758 
 1                     1.35011  -2.00737  -0.90207 
 1                    -0.31781  -0.04616   1.9067 
 1                    -0.55459  -2.16055   0.74205 
 1                    -0.45422   2.13207   0.87419 
 1                    -1.07235   2.22842  -1.38625 
 1                    -2.66362  -0.21361   0.39963 
 1                    -1.23984  -0.62055  -1.51849 
 
                          Input orientation:                          
 ---------------------------------------------------------------------
 Center     Atomic      Atomic             Coordinates (Angstroms)
 Number     Number       Type             X           Y           Z
 ---------------------------------------------------------------------
      1          6           0        2.030654    0.617152    0.738378
      2          6           0        1.038222    1.099544   -0.330538
      3          6           0        0.998249   -1.118337   -0.373069
      4          6           0       -0.839147   -0.013670    0.946633
      5          6           0       -0.452449   -1.263185    0.124641
      6          6           0       -0.402072    1.267613    0.197576
      7          8           0        1.067542   -0.008408   -1.250354
      8          8           0        1.870985   -0.817037    0.715943
      9          8           0       -1.317276    1.429936   -0.890679
     10          8           0       -2.223012   -0.013017    1.244611
     11          8           0       -1.340669   -1.429619   -0.979721
     12          1           0        1.815652    0.997429    1.741867
     13          1           0        3.061145    0.871227    0.469838
     14          1           0        1.374202    1.989554   -0.867584
     15          1           0        1.350113   -2.007374   -0.902074
     16          1           0       -0.317805   -0.046156    1.906699
     17          1           0       -0.554588   -2.160547    0.742047
     18          1           0       -0.454216    2.132069    0.874191
     19          1           0       -1.072355    2.228418   -1.386246
     20          1           0       -2.663616   -0.213614    0.399630
     21          1           0       -1.239839   -0.620552   -1.518489
 ---------------------------------------------------------------------
                    Distance matrix (angstroms):
                    1          2          3          4          5
     1  C    0.000000
     2  C    1.536296   0.000000
     3  C    2.305016   2.218649   0.000000
     4  C    2.945686   2.528819   2.517524   0.000000
     5  C    3.174609   2.830508   1.540526   1.544828   0.000000
     6  C    2.575601   1.543243   2.824764   1.547193   2.532350
     7  O    2.296511   1.440305   1.416465   2.908993   2.403216
     8  O    1.443224   2.337071   1.427724   2.836094   2.438654
     9  O    3.810916   2.443622   3.481849   2.385020   3.005279
    10  O    4.329787   3.788738   3.770298   1.415582   2.439702
    11  O    4.301971   3.532312   2.436280   2.442801   1.426972
    12  H    1.094453   2.215781   3.101220   2.950030   3.587489
    13  H    1.094797   2.187452   2.987373   4.027736   4.125557
    14  H    2.212133   1.092437   3.169365   3.493308   3.860243
    15  H    3.168968   3.174408   1.092722   3.490764   2.203904
    16  H    2.705589   2.855988   2.842343   1.092968   2.162179
    17  H    3.794615   3.783606   2.177381   2.175295   1.094021
    18  H    2.913417   2.178268   3.772327   2.181196   3.477007
    19  H    4.091316   2.615991   4.063828   3.244020   3.854654
    20  H    4.779236   3.995139   3.850304   1.915170   2.463022
    21  H    4.161909   3.091847   2.562970   2.570153   1.932055
                    6          7          8          9         10
     6  C    0.000000
     7  O    2.425798   0.000000
     8  O    3.127500   2.272823   0.000000
     9  O    1.431169   2.808123   4.218427   0.000000
    10  O    2.460105   4.129481   4.205562   2.731654   0.000000
    11  O    3.089021   2.809371   3.683104   2.861037   2.780817
    12  H    2.715904   3.244189   2.085154   4.114924   4.192740
    13  H    3.496444   2.776197   2.080212   4.618845   5.413361
    14  H    2.193380   2.057281   3.260568   2.749138   4.627268
    15  H    3.873619   2.048661   2.075136   4.350884   4.620924
    16  H    2.157357   3.447839   2.608248   3.317094   2.017244
    17  H    3.474477   3.351518   2.772924   4.017344   2.765519
    18  H    1.099005   3.378029   3.758833   2.086296   2.804861
    19  H    1.970004   3.098551   4.728345   0.971157   3.642726
    20  H    2.710985   4.084862   4.585497   2.485716   0.973840
    21  H    2.685498   2.402212   3.835169   2.145843   2.995071
                   11         12         13         14         15
    11  O    0.000000
    12  H    4.822859   0.000000
    13  H    5.174078   1.784723   0.000000
    14  H    4.367361   2.826380   2.425929   0.000000
    15  H    2.753205   4.029391   3.618856   3.997149   0.000000
    16  H    3.360304   2.380731   3.784635   3.834534   3.810188
    17  H    2.028956   4.073143   4.726444   4.851235   2.520810
    18  H    4.111984   2.681897   3.756459   2.529269   4.852392
    19  H    3.690324   4.431818   4.729993   2.512311   4.903540
    20  H    2.265274   4.830328   5.827066   4.771138   4.584979
    21  H    0.977255   4.752243   4.967626   3.750939   3.001848
                   16         17         18         19         20
    16  H    0.000000
    17  H    2.425516   0.000000
    18  H    2.414404   4.295822   0.000000
    19  H    4.072655   4.905174   2.345411   0.000000
    20  H    2.793229   2.890639   3.257128   3.418331   0.000000
    21  H    3.593326   2.819783   3.730823   2.856951   2.423204
                   21
    21  H    0.000000
 Stoichiometry    C6H10O5
 Framework group  C1[X(C6H10O5)]
 Deg. of freedom    57
 Full point group                 C1      NOp   1
 Largest Abelian subgroup         C1      NOp   1
 Largest concise Abelian subgroup C1      NOp   1
                         Standard orientation:                         
 ---------------------------------------------------------------------
 Center     Atomic      Atomic             Coordinates (Angstroms)
 Number     Number       Type             X           Y           Z
 ---------------------------------------------------------------------
      1          6           0        2.030654    0.617152    0.738378
      2          6           0        1.038222    1.099544   -0.330538
      3          6           0        0.998249   -1.118337   -0.373069
      4          6           0       -0.839147   -0.013670    0.946633
      5          6           0       -0.452449   -1.263185    0.124641
      6          6           0       -0.402072    1.267613    0.197576
      7          8           0        1.067542   -0.008408   -1.250354
      8          8           0        1.870985   -0.817037    0.715943
      9          8           0       -1.317276    1.429936   -0.890679
     10          8           0       -2.223012   -0.013017    1.244611
     11          8           0       -1.340669   -1.429619   -0.979721
     12          1           0        1.815652    0.997429    1.741867
     13          1           0        3.061145    0.871227    0.469838
     14          1           0        1.374202    1.989554   -0.867584
     15          1           0        1.350113   -2.007374   -0.902074
     16          1           0       -0.317805   -0.046156    1.906699
     17          1           0       -0.554588   -2.160547    0.742047
     18          1           0       -0.454216    2.132069    0.874191
     19          1           0       -1.072355    2.228418   -1.386246
     20          1           0       -2.663616   -0.213614    0.399630
     21          1           0       -1.239839   -0.620552   -1.518489
 ---------------------------------------------------------------------
 Rotational constants (GHZ):      1.7180679      1.1350082      1.0166731
 Standard basis: 6-31+G(d,p) (6D, 7F)
 There are   259 symmetry adapted basis functions of A   symmetry.
 Integral buffers will be    131072 words long.
 Raffenetti 2 integral format.
 Two-electron integral symmetry is turned on.
   259 basis functions,   422 primitive gaussians,   259 cartesian basis functions
    43 alpha electrons       43 beta electrons
       nuclear repulsion energy       736.7185903443 Hartrees.
 NAtoms=   21 NActive=   21 NUniq=   21 SFac= 1.00D+00 NAtFMM=   60 NAOKFM=F Big=F
 ------------------------------------------------------------------------------
 Polarizable Continuum Model (PCM)
 =================================
 Model                : C-PCM.
 Atomic radii         : SMD-Coulomb.
 Polarization charges : Total charges.
 Charge compensation  : None.
 Solution method      : Matrix inversion.
 Cavity type          : VdW (van der Waals Surface) (Alpha=1.000).
 Cavity algorithm     : GePol (No added spheres)
                        Default sphere list used, NSphG=   21.
                        Lebedev-Laikov grids with approx.  5.0 points / Ang**2.
                        Smoothing algorithm: Karplus/York (Gamma=1.0000).
                        Polarization charges: spherical gaussians, with
                                              point-specific exponents (IZeta= 3).
                        Self-potential: point-specific (ISelfS= 7).
                        Self-field    : sphere-specific E.n sum rule (ISelfD= 2).
 Solvent              : Water, Eps=  78.355300 Eps(inf)=   1.777849
 ------------------------------------------------------------------------------
 ------------------------------------------------------------------------------
 Atomic radii for non-electrostatic terms: SMD-CDS.
 ------------------------------------------------------------------------------
 Nuclear repulsion after PCM non-electrostatic terms =      736.7232869563 Hartrees.
 One-electron integrals computed using PRISM.
 NBasis=   259 RedAO= T  NBF=   259
 NBsUse=   259 1.00D-06 NBFU=   259
 Harris functional with IExCor=  402 diagonalized for initial guess.
 ExpMin= 4.38D-02 ExpMax= 5.48D+03 ExpMxC= 8.25D+02 IAcc=2 IRadAn=         4 AccDes= 0.00D+00
 HarFok:  IExCor=  402 AccDes= 0.00D+00 IRadAn=         4 IDoV= 1
 ScaDFX=  1.000000  1.000000  1.000000  1.000000
 FoFCou: FMM=F IPFlag=           0 FMFlag=      100000 FMFlg1=           0
         NFxFlg=           0 DoJE=T BraDBF=F KetDBF=T FulRan=T
         Omega=  0.000000  0.000000  1.000000  0.000000  0.000000 ICntrl=     500 IOpCl=  0
         NMat0=    1 NMatS0=    1 NMatT0=    0 NMatD0=    1 NMtDS0=    0 NMtDT0=    0
         I1Cent=           4 NGrid=           0.
 Petite list used in FoFCou.
 Initial guess orbital symmetries:
       Occupied  (A) (A) (A) (A) (A) (A) (A) (A) (A) (A) (A) (A)
                 (A) (A) (A) (A) (A) (A) (A) (A) (A) (A) (A) (A)
                 (A) (A) (A) (A) (A) (A) (A) (A) (A) (A) (A) (A)
                 (A) (A) (A) (A) (A) (A) (A)
       Virtual   (A) (A) (A) (A) (A) (A) (A) (A) (A) (A) (A) (A)
                 (A) (A) (A) (A) (A) (A) (A) (A) (A) (A) (A) (A)
                 (A) (A) (A) (A) (A) (A) (A) (A) (A) (A) (A) (A)
                 (A) (A) (A) (A) (A) (A) (A) (A) (A) (A) (A) (A)
                 (A) (A) (A) (A) (A) (A) (A) (A) (A) (A) (A) (A)
                 (A) (A) (A) (A) (A) (A) (A) (A) (A) (A) (A) (A)
                 (A) (A) (A) (A) (A) (A) (A) (A) (A) (A) (A) (A)
                 (A) (A) (A) (A) (A) (A) (A) (A) (A) (A) (A) (A)
                 (A) (A) (A) (A) (A) (A) (A) (A) (A) (A) (A) (A)
                 (A) (A) (A) (A) (A) (A) (A) (A) (A) (A) (A) (A)
                 (A) (A) (A) (A) (A) (A) (A) (A) (A) (A) (A) (A)
                 (A) (A) (A) (A) (A) (A) (A) (A) (A) (A) (A) (A)
                 (A) (A) (A) (A) (A) (A) (A) (A) (A) (A) (A) (A)
                 (A) (A) (A) (A) (A) (A) (A) (A) (A) (A) (A) (A)
                 (A) (A) (A) (A) (A) (A) (A) (A) (A) (A) (A) (A)
                 (A) (A) (A) (A) (A) (A) (A) (A) (A) (A) (A) (A)
                 (A) (A) (A) (A) (A) (A) (A) (A) (A) (A) (A) (A)
                 (A) (A) (A) (A) (A) (A) (A) (A) (A) (A) (A) (A)
 The electronic state of the initial guess is 1-A.
 Requested convergence on RMS density matrix=1.00D-08 within 128 cycles.
 Requested convergence on MAX density matrix=1.00D-06.
 Requested convergence on             energy=1.00D-06.
 No special actions if energy rises.
 Error on total polarization charges =  0.05689
 SCF Done:  E(RB3LYP) =  -610.809832424     A.U. after   12 cycles
             Convg  =    0.5210D-08             -V/T =  2.0090
 SMD-CDS (non-electrostatic) energy       (kcal/mol) =       2.95
 (included in total energy above)

 **********************************************************************

            Population analysis using the SCF density.

 **********************************************************************

 Orbital symmetries:
       Occupied  (A) (A) (A) (A) (A) (A) (A) (A) (A) (A) (A) (A)
                 (A) (A) (A) (A) (A) (A) (A) (A) (A) (A) (A) (A)
                 (A) (A) (A) (A) (A) (A) (A) (A) (A) (A) (A) (A)
                 (A) (A) (A) (A) (A) (A) (A)
       Virtual   (A) (A) (A) (A) (A) (A) (A) (A) (A) (A) (A) (A)
                 (A) (A) (A) (A) (A) (A) (A) (A) (A) (A) (A) (A)
                 (A) (A) (A) (A) (A) (A) (A) (A) (A) (A) (A) (A)
                 (A) (A) (A) (A) (A) (A) (A) (A) (A) (A) (A) (A)
                 (A) (A) (A) (A) (A) (A) (A) (A) (A) (A) (A) (A)
                 (A) (A) (A) (A) (A) (A) (A) (A) (A) (A) (A) (A)
                 (A) (A) (A) (A) (A) (A) (A) (A) (A) (A) (A) (A)
                 (A) (A) (A) (A) (A) (A) (A) (A) (A) (A) (A) (A)
                 (A) (A) (A) (A) (A) (A) (A) (A) (A) (A) (A) (A)
                 (A) (A) (A) (A) (A) (A) (A) (A) (A) (A) (A) (A)
                 (A) (A) (A) (A) (A) (A) (A) (A) (A) (A) (A) (A)
                 (A) (A) (A) (A) (A) (A) (A) (A) (A) (A) (A) (A)
                 (A) (A) (A) (A) (A) (A) (A) (A) (A) (A) (A) (A)
                 (A) (A) (A) (A) (A) (A) (A) (A) (A) (A) (A) (A)
                 (A) (A) (A) (A) (A) (A) (A) (A) (A) (A) (A) (A)
                 (A) (A) (A) (A) (A) (A) (A) (A) (A) (A) (A) (A)
                 (A) (A) (A) (A) (A) (A) (A) (A) (A) (A) (A) (A)
                 (A) (A) (A) (A) (A) (A) (A) (A) (A) (A) (A) (A)
 The electronic state is 1-A.
 Alpha  occ. eigenvalues --  -19.18483 -19.17770 -19.17225 -19.17045 -19.16895
 Alpha  occ. eigenvalues --  -10.29448 -10.25223 -10.24815 -10.24555 -10.24462
 Alpha  occ. eigenvalues --  -10.24219  -1.11408  -1.05750  -1.03391  -1.02605
 Alpha  occ. eigenvalues --   -1.01103  -0.79545  -0.77962  -0.67869  -0.65331
 Alpha  occ. eigenvalues --   -0.62963  -0.58885  -0.56228  -0.53534  -0.52356
 Alpha  occ. eigenvalues --   -0.49582  -0.48231  -0.46276  -0.45852  -0.44377
 Alpha  occ. eigenvalues --   -0.43517  -0.41953  -0.39883  -0.39789  -0.37725
 Alpha  occ. eigenvalues --   -0.35757  -0.35347  -0.34772  -0.31877  -0.31123
 Alpha  occ. eigenvalues --   -0.28610  -0.28145  -0.26404
 Alpha virt. eigenvalues --    0.00401   0.01611   0.02579   0.02897   0.03969
 Alpha virt. eigenvalues --    0.04686   0.05308   0.05658   0.06074   0.08179
 Alpha virt. eigenvalues --    0.08886   0.09584   0.10377   0.10528   0.11741
 Alpha virt. eigenvalues --    0.11917   0.13291   0.13717   0.13946   0.14665
 Alpha virt. eigenvalues --    0.15663   0.15765   0.16361   0.16889   0.17780
 Alpha virt. eigenvalues --    0.17915   0.19030   0.19436   0.20116   0.20505
 Alpha virt. eigenvalues --    0.21005   0.21573   0.22297   0.22612   0.23846
 Alpha virt. eigenvalues --    0.23991   0.24574   0.25364   0.26220   0.27505
 Alpha virt. eigenvalues --    0.27974   0.28544   0.29210   0.29648   0.30465
 Alpha virt. eigenvalues --    0.30903   0.31447   0.31835   0.32594   0.32869
 Alpha virt. eigenvalues --    0.33611   0.34224   0.35205   0.35986   0.36454
 Alpha virt. eigenvalues --    0.36864   0.37619   0.38436   0.39071   0.39342
 Alpha virt. eigenvalues --    0.41790   0.42339   0.44371   0.45346   0.46619
 Alpha virt. eigenvalues --    0.47962   0.63314   0.65081   0.66284   0.67509
 Alpha virt. eigenvalues --    0.69542   0.71206   0.72446   0.74728   0.76691
 Alpha virt. eigenvalues --    0.79048   0.80281   0.81772   0.83471   0.85155
 Alpha virt. eigenvalues --    0.87120   0.92490   0.94489   0.95392   0.99429
 Alpha virt. eigenvalues --    1.01030   1.02541   1.03102   1.06449   1.07199
 Alpha virt. eigenvalues --    1.08060   1.08818   1.10885   1.12188   1.13468
 Alpha virt. eigenvalues --    1.17694   1.19960   1.21006   1.25172   1.26732
 Alpha virt. eigenvalues --    1.27052   1.28291   1.29770   1.30363   1.31953
 Alpha virt. eigenvalues --    1.33111   1.34148   1.37280   1.38427   1.40285
 Alpha virt. eigenvalues --    1.43216   1.44381   1.46721   1.47608   1.50914
 Alpha virt. eigenvalues --    1.52190   1.55374   1.57113   1.58229   1.60071
 Alpha virt. eigenvalues --    1.60830   1.61493   1.65221   1.69237   1.70084
 Alpha virt. eigenvalues --    1.70523   1.72608   1.74266   1.75593   1.76273
 Alpha virt. eigenvalues --    1.80012   1.82463   1.84212   1.85299   1.86293
 Alpha virt. eigenvalues --    1.88696   1.91485   1.93822   1.96681   1.99208
 Alpha virt. eigenvalues --    2.00664   2.03053   2.05055   2.07367   2.08469
 Alpha virt. eigenvalues --    2.10166   2.10993   2.16043   2.17209   2.17678
 Alpha virt. eigenvalues --    2.18469   2.20399   2.24024   2.25522   2.28225
 Alpha virt. eigenvalues --    2.31428   2.36102   2.36406   2.37917   2.40638
 Alpha virt. eigenvalues --    2.44659   2.46934   2.49629   2.50256   2.52198
 Alpha virt. eigenvalues --    2.54586   2.57538   2.59394   2.60108   2.62789
 Alpha virt. eigenvalues --    2.64657   2.65753   2.66499   2.68972   2.69690
 Alpha virt. eigenvalues --    2.71631   2.75290   2.77275   2.77540   2.79800
 Alpha virt. eigenvalues --    2.82320   2.83828   2.86120   2.89521   2.90334
 Alpha virt. eigenvalues --    2.94857   2.97273   2.98244   2.99268   3.02716
 Alpha virt. eigenvalues --    3.03664   3.07899   3.09194   3.14612   3.18270
 Alpha virt. eigenvalues --    3.34654   3.39378   3.44425   3.45844   3.47094
 Alpha virt. eigenvalues --    3.49701   3.51962   3.54734   3.59326   3.61058
 Alpha virt. eigenvalues --    4.24842   4.32411   4.44024   4.44264   4.46408
 Alpha virt. eigenvalues --    4.54052   4.60959   4.75654   4.83176   4.90001
 Alpha virt. eigenvalues --    5.05000
          Condensed to atoms (all electrons):
              1          2          3          4          5          6
     1  C    5.479744  -0.104073  -0.272615  -0.074573   0.068231   0.045385
     2  C   -0.104073   7.067162  -1.021060   0.278063   0.598551  -1.170599
     3  C   -0.272615  -1.021060   7.051519  -0.108756  -1.228541   0.906390
     4  C   -0.074573   0.278063  -0.108756   5.980348   0.024766  -0.362390
     5  C    0.068231   0.598551  -1.228541   0.024766   6.852344  -0.847583
     6  C    0.045385  -1.170599   0.906390  -0.362390  -0.847583   7.033911
     7  O   -0.044319   0.153465   0.219692  -0.061210  -0.073972  -0.088794
     8  O    0.159562  -0.112577   0.275031   0.036769  -0.161648  -0.028017
     9  O    0.027874   0.000816  -0.087219  -0.149918   0.106186   0.077592
    10  O   -0.008498   0.037310   0.016521   0.308924  -0.094641  -0.165195
    11  O    0.003367  -0.046990  -0.068029  -0.089228   0.213348   0.044784
    12  H    0.454558  -0.151819   0.019141  -0.033930   0.006332   0.064888
    13  H    0.406976  -0.007036  -0.021761   0.003552   0.006187  -0.011438
    14  H    0.001541   0.286067   0.036525  -0.002724  -0.021614   0.043451
    15  H    0.012808   0.043678   0.328405   0.025333  -0.011787  -0.037171
    16  H    0.008158  -0.017593  -0.009198   0.420290  -0.032084  -0.043377
    17  H    0.012260  -0.034221  -0.002453  -0.100969   0.392329   0.061518
    18  H    0.014680   0.024308  -0.032582  -0.053167   0.047173   0.298793
    19  H    0.005423  -0.046724   0.012494   0.020487  -0.018492   0.037151
    20  H    0.001211  -0.007847   0.012789   0.043221  -0.058640  -0.016588
    21  H    0.000229  -0.018386  -0.030283  -0.052022   0.038519   0.054100
              7          8          9         10         11         12
     1  C   -0.044319   0.159562   0.027874  -0.008498   0.003367   0.454558
     2  C    0.153465  -0.112577   0.000816   0.037310  -0.046990  -0.151819
     3  C    0.219692   0.275031  -0.087219   0.016521  -0.068029   0.019141
     4  C   -0.061210   0.036769  -0.149918   0.308924  -0.089228  -0.033930
     5  C   -0.073972  -0.161648   0.106186  -0.094641   0.213348   0.006332
     6  C   -0.088794  -0.028017   0.077592  -0.165195   0.044784   0.064888
     7  O    8.403914  -0.039713   0.008382  -0.001016   0.006289   0.009142
     8  O   -0.039713   8.435547   0.000685  -0.001392   0.006137  -0.042390
     9  O    0.008382   0.000685   8.489155   0.009089  -0.012495  -0.000076
    10  O   -0.001016  -0.001392   0.009089   8.315932  -0.018096  -0.000137
    11  O    0.006289   0.006137  -0.012495  -0.018096   8.325155  -0.000011
    12  H    0.009142  -0.042390  -0.000076  -0.000137  -0.000011   0.531840
    13  H   -0.000383  -0.050390  -0.000201   0.000031   0.000089  -0.039086
    14  H   -0.036102   0.007935  -0.008702  -0.000353   0.000165   0.002186
    15  H   -0.046441  -0.037574   0.000815  -0.000584   0.005642  -0.000258
    16  H   -0.001095   0.002643   0.009496  -0.057828   0.007419   0.000265
    17  H    0.009064   0.001431  -0.001469   0.003490  -0.054088   0.000021
    18  H    0.007648   0.000364  -0.031115   0.003385  -0.001276   0.000352
    19  H   -0.002741  -0.000077   0.238791   0.000375   0.001034   0.000005
    20  H   -0.000713   0.000119   0.007240   0.246306   0.027797  -0.000005
    21  H    0.016628   0.000062   0.003535  -0.004037   0.248407  -0.000002
             13         14         15         16         17         18
     1  C    0.406976   0.001541   0.012808   0.008158   0.012260   0.014680
     2  C   -0.007036   0.286067   0.043678  -0.017593  -0.034221   0.024308
     3  C   -0.021761   0.036525   0.328405  -0.009198  -0.002453  -0.032582
     4  C    0.003552  -0.002724   0.025333   0.420290  -0.100969  -0.053167
     5  C    0.006187  -0.021614  -0.011787  -0.032084   0.392329   0.047173
     6  C   -0.011438   0.043451  -0.037171  -0.043377   0.061518   0.298793
     7  O   -0.000383  -0.036102  -0.046441  -0.001095   0.009064   0.007648
     8  O   -0.050390   0.007935  -0.037574   0.002643   0.001431   0.000364
     9  O   -0.000201  -0.008702   0.000815   0.009496  -0.001469  -0.031115
    10  O    0.000031  -0.000353  -0.000584  -0.057828   0.003490   0.003385
    11  O    0.000089   0.000165   0.005642   0.007419  -0.054088  -0.001276
    12  H   -0.039086   0.002186  -0.000258   0.000265   0.000021   0.000352
    13  H    0.547562  -0.003787   0.000348   0.000073  -0.000004  -0.000019
    14  H   -0.003787   0.516838  -0.000083  -0.000119   0.000023  -0.003320
    15  H    0.000348  -0.000083   0.549609  -0.000141  -0.003869   0.000024
    16  H    0.000073  -0.000119  -0.000141   0.527541  -0.004369  -0.004871
    17  H   -0.000004   0.000023  -0.003869  -0.004369   0.544091  -0.000138
    18  H   -0.000019  -0.003320   0.000024  -0.004871  -0.000138   0.570185
    19  H   -0.000006   0.003214  -0.000004  -0.000159   0.000017  -0.006215
    20  H    0.000000  -0.000004  -0.000013   0.006290  -0.000647  -0.000450
    21  H    0.000001   0.000074  -0.000424  -0.000170   0.006052  -0.000010
             19         20         21
     1  C    0.005423   0.001211   0.000229
     2  C   -0.046724  -0.007847  -0.018386
     3  C    0.012494   0.012789  -0.030283
     4  C    0.020487   0.043221  -0.052022
     5  C   -0.018492  -0.058640   0.038519
     6  C    0.037151  -0.016588   0.054100
     7  O   -0.002741  -0.000713   0.016628
     8  O   -0.000077   0.000119   0.000062
     9  O    0.238791   0.007240   0.003535
    10  O    0.000375   0.246306  -0.004037
    11  O    0.001034   0.027797   0.248407
    12  H    0.000005  -0.000005  -0.000002
    13  H   -0.000006   0.000000   0.000001
    14  H    0.003214  -0.000004   0.000074
    15  H   -0.000004  -0.000013  -0.000424
    16  H   -0.000159   0.006290  -0.000170
    17  H    0.000017  -0.000647   0.006052
    18  H   -0.006215  -0.000450  -0.000010
    19  H    0.329494  -0.000062   0.000391
    20  H   -0.000062   0.339456  -0.002090
    21  H    0.000391  -0.002090   0.326656
 Mulliken atomic charges:
              1
     1  C   -0.197928
     2  C    0.249505
     3  C    0.003992
     4  C   -0.052865
     5  C    0.195038
     6  C    0.103188
     7  O   -0.437725
     8  O   -0.452508
     9  O   -0.688461
    10  O   -0.589587
    11  O   -0.599421
    12  H    0.178986
    13  H    0.169292
    14  H    0.178792
    15  H    0.171687
    16  H    0.188830
    17  H    0.171930
    18  H    0.166250
    19  H    0.425605
    20  H    0.402631
    21  H    0.412769
 Sum of Mulliken atomic charges =   0.00000
 Mulliken charges with hydrogens summed into heavy atoms:
              1
     1  C    0.150350
     2  C    0.428297
     3  C    0.175679
     4  C    0.135966
     5  C    0.366967
     6  C    0.269438
     7  O   -0.437725
     8  O   -0.452508
     9  O   -0.262856
    10  O   -0.186956
    11  O   -0.186652
 Sum of Mulliken charges with hydrogens summed into heavy atoms =   0.00000
 Electronic spatial extent (au):  <R**2>=           1368.0932
 Charge=              0.0000 electrons
 Dipole moment (field-independent basis, Debye):
    X=              3.3222    Y=              5.0584    Z=             -0.3022  Tot=              6.0593
 Quadrupole moment (field-independent basis, Debye-Ang):
   XX=            -73.8705   YY=            -57.0046   ZZ=            -68.3984
   XY=              2.7470   XZ=              4.5927   YZ=             -2.9120
 Traceless Quadrupole moment (field-independent basis, Debye-Ang):
   XX=             -7.4460   YY=              9.4199   ZZ=             -1.9739
   XY=              2.7470   XZ=              4.5927   YZ=             -2.9120
 Octapole moment (field-independent basis, Debye-Ang**2):
  XXX=              8.2776  YYY=             24.5728  ZZZ=             -6.5452  XYY=              8.1211
  XXY=             12.0321  XXZ=            -14.2529  XZZ=              3.7346  YZZ=             11.7627
  YYZ=             -7.7270  XYZ=             11.7422
 Hexadecapole moment (field-independent basis, Debye-Ang**3):
 XXXX=           -842.2801 YYYY=           -439.9708 ZZZZ=           -355.8468 XXXY=             30.3572
 XXXZ=             29.6044 YYYX=            -25.8314 YYYZ=            -40.1615 ZZZX=             33.1915
 ZZZY=            -10.8297 XXYY=           -236.4429 XXZZ=           -232.4666 YYZZ=           -129.9286
 XXYZ=              1.8855 YYXZ=            -10.4376 ZZXY=             -5.0172
 N-N= 7.367232869563D+02 E-N=-2.903343928184D+03  KE= 6.053631109782D+02

 Test job not archived.
 1\1\GINC-COMPUTE-10-2\SP\RB3LYP\6-31+G(d,p)\C6H10O5\ROOT\15-Apr-2019\0
 \\# B3LYP/6-31+G** test scrf=(pcm,solvent=water,smd,dovacuum)\\comment
 \\0,1\C,0,2.030654,0.617152,0.738378\C,0,1.038222,1.099544,-0.330538\C
 ,0,0.998249,-1.118337,-0.373069\C,0,-0.839147,-0.01367,0.946633\C,0,-0
 .452449,-1.263185,0.124641\C,0,-0.402072,1.267613,0.197576\O,0,1.06754
 2,-0.008408,-1.250354\O,0,1.870985,-0.817037,0.715943\O,0,-1.317276,1.
 429936,-0.890679\O,0,-2.223012,-0.013017,1.244611\O,0,-1.340669,-1.429
 619,-0.979721\H,0,1.815652,0.997429,1.741867\H,0,3.061145,0.871227,0.4
 69838\H,0,1.374202,1.989554,-0.867584\H,0,1.350113,-2.007374,-0.902074
 \H,0,-0.317805,-0.046156,1.906699\H,0,-0.554588,-2.160547,0.742047\H,0
 ,-0.454216,2.132069,0.874191\H,0,-1.072355,2.228418,-1.386246\H,0,-2.6
 63616,-0.213614,0.39963\H,0,-1.239839,-0.620552,-1.518489\\Version=EM6
 4L-G09RevC.01\State=1-A\HF=-610.8098324\RMSD=5.210e-09\Dipole=1.307038
 2,1.9901262,-0.1189128\Quadrupole=-5.5359476,7.0034749,-1.4675273,2.04
 23418,3.4145464,-2.1649862\PG=C01 [X(C6H10O5)]\\@


 AND THIS OUR LIFE, EXEMPT FROM PUBLIC HAUNT,
 FINDS TONGUES IN TREES, BOOKS IN THE RUNNING BROOKS,
 SERMONS IN STONES, AND GOOD IN EVERYTHING.
 I WOULD NOT CHANGE IT. -- W. SHAKESPEARE
 AS YOU LIKE IT, ACT II, SCENE 1.
 Job cpu time:  0 days  0 hours  5 minutes 35.9 seconds.
 File lengths (MBytes):  RWF=     55 Int=      0 D2E=      0 Chk=      4 Scr=      1
 Normal termination of Gaussian 09 at Mon Apr 15 18:28:08 2019.
