 Entering Gaussian System, Link 0=g09
 Input=/home/mmarcarino.iquir/NMR/04_RRR_Levo08_OPTB_nmr.gjc
 Output=/home/mmarcarino.iquir/NMR/04_RRR_Levo08_OPTB_nmr.log
 Initial command:
 /share/apps/Gaussian09/EM64T.SSE4.2-enabled/g09/l1.exe /tmp/Gau-64780.inp -scrdir=/tmp/
 Entering Link 1 = /share/apps/Gaussian09/EM64T.SSE4.2-enabled/g09/l1.exe PID=     64781.
  
 Copyright (c) 1988,1990,1992,1993,1995,1998,2003,2009,2011,
            Gaussian, Inc.  All Rights Reserved.
  
 This is part of the Gaussian(R) 09 program.  It is based on
 the Gaussian(R) 03 system (copyright 2003, Gaussian, Inc.),
 the Gaussian(R) 98 system (copyright 1998, Gaussian, Inc.),
 the Gaussian(R) 94 system (copyright 1995, Gaussian, Inc.),
 the Gaussian 92(TM) system (copyright 1992, Gaussian, Inc.),
 the Gaussian 90(TM) system (copyright 1990, Gaussian, Inc.),
 the Gaussian 88(TM) system (copyright 1988, Gaussian, Inc.),
 the Gaussian 86(TM) system (copyright 1986, Carnegie Mellon
 University), and the Gaussian 82(TM) system (copyright 1983,
 Carnegie Mellon University). Gaussian is a federally registered
 trademark of Gaussian, Inc.
  
 This software contains proprietary and confidential information,
 including trade secrets, belonging to Gaussian, Inc.
  
 This software is provided under written license and may be
 used, copied, transmitted, or stored only in accord with that
 written license.
  
 The following legend is applicable only to US Government
 contracts under FAR:
  
                    RESTRICTED RIGHTS LEGEND
  
 Use, reproduction and disclosure by the US Government is
 subject to restrictions as set forth in subparagraphs (a)
 and (c) of the Commercial Computer Software - Restricted
 Rights clause in FAR 52.227-19.
  
 Gaussian, Inc.
 340 Quinnipiac St., Bldg. 40, Wallingford CT 06492
  
  
 ---------------------------------------------------------------
 Warning -- This program may not be used in any manner that
 competes with the business of Gaussian, Inc. or will provide
 assistance to any competitor of Gaussian, Inc.  The licensee
 of this program is prohibited from giving any competitor of
 Gaussian, Inc. access to this program.  By using this program,
 the user acknowledges that Gaussian, Inc. is engaged in the
 business of creating and licensing software in the field of
 computational chemistry and represents and warrants to the
 licensee that it is not a competitor of Gaussian, Inc. and that
 it will not use this program in any manner prohibited above.
 ---------------------------------------------------------------
  

 Cite this work as:
 Gaussian 09, Revision C.01,
 M. J. Frisch, G. W. Trucks, H. B. Schlegel, G. E. Scuseria, 
 M. A. Robb, J. R. Cheeseman, G. Scalmani, V. Barone, B. Mennucci, 
 G. A. Petersson, H. Nakatsuji, M. Caricato, X. Li, H. P. Hratchian, 
 A. F. Izmaylov, J. Bloino, G. Zheng, J. L. Sonnenberg, M. Hada, 
 M. Ehara, K. Toyota, R. Fukuda, J. Hasegawa, M. Ishida, T. Nakajima, 
 Y. Honda, O. Kitao, H. Nakai, T. Vreven, J. A. Montgomery, Jr., 
 J. E. Peralta, F. Ogliaro, M. Bearpark, J. J. Heyd, E. Brothers, 
 K. N. Kudin, V. N. Staroverov, T. Keith, R. Kobayashi, J. Normand, 
 K. Raghavachari, A. Rendell, J. C. Burant, S. S. Iyengar, J. Tomasi, 
 M. Cossi, N. Rega, J. M. Millam, M. Klene, J. E. Knox, J. B. Cross, 
 V. Bakken, C. Adamo, J. Jaramillo, R. Gomperts, R. E. Stratmann, 
 O. Yazyev, A. J. Austin, R. Cammi, C. Pomelli, J. W. Ochterski, 
 R. L. Martin, K. Morokuma, V. G. Zakrzewski, G. A. Voth, 
 P. Salvador, J. J. Dannenberg, S. Dapprich, A. D. Daniels, 
 O. Farkas, J. B. Foresman, J. V. Ortiz, J. Cioslowski, 
 and D. J. Fox, Gaussian, Inc., Wallingford CT, 2010.
 
 ******************************************
 Gaussian 09:  EM64L-G09RevC.01 23-Sep-2011
                12-Apr-2019 
 ******************************************
 %nprocshared=4
 Will use up to    4 processors via shared memory.
 ------------------------------------------------
 # mpw1pw91/6-31+g** nmr scrf=(pcm,solvent=water)
 ------------------------------------------------
 1/38=1/1;
 2/12=2,17=6,18=5,40=1/2;
 3/5=1,6=6,7=111,11=2,16=1,25=1,30=1,70=2201,72=1,74=-7/1,2,8,3;
 4//1;
 5/5=2,38=5,53=1/2;
 8/6=1,10=90,11=11/1;
 10/13=100,45=16/2;
 6/7=2,8=2,9=2,10=2,28=1/1;
 99/9=1/99;
 -------
 comment
 -------
 Charge =  0 Multiplicity = 1
 Symbolic Z-Matrix:
 6                    -2.28262   0.33833  -0.25793 
 6                    -1.06653   0.93067   0.45677 
 6                    -0.72009  -1.25233   0.33052 
 6                     1.15001   0.19592  -0.59891 
 6                     0.55103  -1.23696  -0.55124 
 6                     0.08388   1.31937  -0.51601 
 8                    -0.68349  -0.1973    1.2735 
 8                    -1.87716  -1.02193  -0.48208 
 8                     0.70574   2.53932  -0.14379 
 8                     2.02405   0.34804   0.54312 
 8                     1.52502  -2.15251  -0.07974 
 1                    -2.51068   0.81036  -1.21762 
 1                    -3.17253   0.36688   0.38237 
 1                    -1.29941   1.76762   1.11655 
 1                    -0.8143   -2.20283   0.86311 
 1                     1.73617   0.32282  -1.5125 
 1                     0.26609  -1.5569   -1.55808 
 1                    -0.33298   1.48384  -1.51527 
 1                     1.34539   2.28711   0.54874 
 1                     2.92532   0.4878    0.21412 
 1                     2.00948  -1.66166   0.61133 
 
                          Input orientation:                          
 ---------------------------------------------------------------------
 Center     Atomic      Atomic             Coordinates (Angstroms)
 Number     Number       Type             X           Y           Z
 ---------------------------------------------------------------------
      1          6           0       -2.282615    0.338331   -0.257928
      2          6           0       -1.066531    0.930674    0.456768
      3          6           0       -0.720092   -1.252329    0.330518
      4          6           0        1.150013    0.195922   -0.598914
      5          6           0        0.551025   -1.236963   -0.551242
      6          6           0        0.083877    1.319372   -0.516011
      7          8           0       -0.683485   -0.197296    1.273503
      8          8           0       -1.877158   -1.021930   -0.482077
      9          8           0        0.705743    2.539315   -0.143787
     10          8           0        2.024049    0.348040    0.543115
     11          8           0        1.525023   -2.152514   -0.079742
     12          1           0       -2.510677    0.810362   -1.217621
     13          1           0       -3.172533    0.366882    0.382370
     14          1           0       -1.299406    1.767618    1.116553
     15          1           0       -0.814302   -2.202834    0.863107
     16          1           0        1.736167    0.322821   -1.512495
     17          1           0        0.266092   -1.556904   -1.558076
     18          1           0       -0.332982    1.483842   -1.515270
     19          1           0        1.345392    2.287107    0.548736
     20          1           0        2.925317    0.487800    0.214123
     21          1           0        2.009481   -1.661660    0.611332
 ---------------------------------------------------------------------
                    Distance matrix (angstroms):
                    1          2          3          4          5
     1  C    0.000000
     2  C    1.529876   0.000000
     3  C    2.306067   2.213924   0.000000
     4  C    3.452461   2.562692   2.541371   0.000000
     5  C    3.255319   2.886386   1.547086   1.553776   0.000000
     6  C    2.574749   1.555900   2.824292   1.551019   2.598907
     7  O    2.278024   1.444333   1.415505   2.649959   2.436107
     8  O    1.436993   2.313268   1.432549   3.265054   2.438667
     9  O    3.713171   2.467660   4.078546   2.428170   3.801346
    10  O    4.380539   3.146205   3.183817   1.446136   2.424799
    11  O    4.553478   4.063255   2.453403   2.434199   1.417469
    12  H    1.093543   2.214410   3.139685   3.763109   3.742943
    13  H    1.096700   2.181431   2.939218   4.435826   4.160389
    14  H    2.213314   1.090881   3.173883   3.378270   3.902966
    15  H    3.141685   3.169795   1.093612   3.427837   2.190299
    16  H    4.210082   3.478879   3.451232   1.092845   2.182085
    17  H    3.431939   3.467495   2.152234   2.184881   1.094195
    18  H    2.587310   2.175551   3.323164   2.167423   3.018874
    19  H    4.196531   2.768707   4.103834   2.393393   3.776247
    20  H    5.231417   4.023663   4.041114   1.974317   3.032796
    21  H    4.814319   4.025660   2.774343   2.377812   1.912862
                    6          7          8          9         10
     6  C    0.000000
     7  O    2.468094   0.000000
     8  O    3.054260   2.277485   0.000000
     9  O    1.418989   3.380489   4.412288   0.000000
    10  O    2.414436   2.856851   4.259959   2.647914   0.000000
    11  O    3.784339   3.245251   3.607621   4.763253   2.624833
    12  H    2.735518   3.249570   2.073563   3.806278   4.886479
    13  H    3.509777   2.703290   2.086639   4.476308   5.199102
    14  H    2.186244   2.065158   3.266649   2.490903   3.659151
    15  H    3.887753   2.051273   2.081758   5.080586   3.829568
    16  H    2.171671   3.726530   3.990769   2.801425   2.075824
    17  H    3.064648   3.281474   2.457131   4.355745   3.336799
    18  H    1.095144   3.275108   3.119433   2.018400   3.329052
    19  H    1.913535   3.288448   4.732561   0.975883   2.054407
    20  H    3.049326   3.822969   5.082100   3.043571   0.969563
    21  H    3.723628   3.136064   4.087880   4.462973   2.010910
                   11         12         13         14         15
    11  O    0.000000
    12  H    5.134226   0.000000
    13  H    5.350508   1.787372   0.000000
    14  H    4.977545   2.798550   2.451467   0.000000
    15  H    2.522685   4.035650   3.520767   4.007998   0.000000
    16  H    2.867864   4.284896   5.261919   4.267790   4.304336
    17  H    2.031042   3.664738   4.392087   4.544983   2.728847
    18  H    4.328511   2.298810   3.593284   2.817977   4.413607
    19  H    4.487481   4.491109   4.911882   2.754495   4.992262
    20  H    3.003071   5.630628   6.101369   4.505619   4.652466
    21  H    0.976330   5.466973   5.569621   4.792069   2.886176
                   16         17         18         19         20
    16  H    0.000000
    17  H    2.386748   0.000000
    18  H    2.372626   3.099493   0.000000
    19  H    2.873986   4.514418   2.778902   0.000000
    20  H    2.102975   3.793808   3.820918   2.417775   0.000000
    21  H    2.919504   2.785087   4.461362   4.004709   2.369960
                   21
    21  H    0.000000
 Stoichiometry    C6H10O5
 Framework group  C1[X(C6H10O5)]
 Deg. of freedom    57
 Full point group                 C1      NOp   1
 Largest Abelian subgroup         C1      NOp   1
 Largest concise Abelian subgroup C1      NOp   1
                         Standard orientation:                         
 ---------------------------------------------------------------------
 Center     Atomic      Atomic             Coordinates (Angstroms)
 Number     Number       Type             X           Y           Z
 ---------------------------------------------------------------------
      1          6           0       -2.282615    0.338333   -0.257928
      2          6           0       -1.066530    0.930675    0.456768
      3          6           0       -0.720093   -1.252328    0.330518
      4          6           0        1.150013    0.195921   -0.598914
      5          6           0        0.551024   -1.236963   -0.551242
      6          6           0        0.083878    1.319372   -0.516011
      7          8           0       -0.683485   -0.197295    1.273503
      8          8           0       -1.877159   -1.021929   -0.482077
      9          8           0        0.705745    2.539315   -0.143787
     10          8           0        2.024049    0.348039    0.543115
     11          8           0        1.525022   -2.152515   -0.079742
     12          1           0       -2.510676    0.810364   -1.217621
     13          1           0       -3.172533    0.366884    0.382370
     14          1           0       -1.299405    1.767619    1.116553
     15          1           0       -0.814304   -2.202833    0.863107
     16          1           0        1.736167    0.322820   -1.512495
     17          1           0        0.266091   -1.556904   -1.558076
     18          1           0       -0.332981    1.483842   -1.515270
     19          1           0        1.345394    2.287106    0.548736
     20          1           0        2.925318    0.487798    0.214123
     21          1           0        2.009480   -1.661661    0.611332
 ---------------------------------------------------------------------
 Rotational constants (GHZ):      1.4425649      1.3461111      0.8397649
 Standard basis: 6-31+G(d,p) (6D, 7F)
 There are   259 symmetry adapted basis functions of A   symmetry.
 Integral buffers will be    131072 words long.
 Raffenetti 2 integral format.
 Two-electron integral symmetry is turned on.
   259 basis functions,   422 primitive gaussians,   259 cartesian basis functions
    43 alpha electrons       43 beta electrons
       nuclear repulsion energy       725.4019471788 Hartrees.
 NAtoms=   21 NActive=   21 NUniq=   21 SFac= 1.00D+00 NAtFMM=   60 NAOKFM=F Big=F
 ------------------------------------------------------------------------------
 Polarizable Continuum Model (PCM)
 =================================
 Model                : PCM.
 Atomic radii         : UFF (Universal Force Field).
 Polarization charges : Total charges.
 Charge compensation  : None.
 Solution method      : Matrix inversion.
 Cavity type          : Scaled VdW (van der Waals Surface) (Alpha=1.100).
 Cavity algorithm     : GePol (No added spheres)
                        Default sphere list used, NSphG=   21.
                        Lebedev-Laikov grids with approx.  5.0 points / Ang**2.
                        Smoothing algorithm: Karplus/York (Gamma=1.0000).
                        Polarization charges: spherical gaussians, with
                                              point-specific exponents (IZeta= 3).
                        Self-potential: point-specific (ISelfS= 7).
                        Self-field    : sphere-specific E.n sum rule (ISelfD= 2).
 Solvent              : Water, Eps=  78.355300 Eps(inf)=   1.777849
 ------------------------------------------------------------------------------
 One-electron integrals computed using PRISM.
 NBasis=   259 RedAO= T  NBF=   259
 NBsUse=   259 1.00D-06 NBFU=   259
 Harris functional with IExCor=  908 diagonalized for initial guess.
 ExpMin= 4.38D-02 ExpMax= 5.48D+03 ExpMxC= 8.25D+02 IAcc=2 IRadAn=         4 AccDes= 0.00D+00
 HarFok:  IExCor=  908 AccDes= 0.00D+00 IRadAn=         4 IDoV= 1
 ScaDFX=  1.000000  1.000000  1.000000  1.000000
 FoFCou: FMM=F IPFlag=           0 FMFlag=      100000 FMFlg1=           0
         NFxFlg=           0 DoJE=T BraDBF=F KetDBF=T FulRan=T
         Omega=  0.000000  0.000000  1.000000  0.000000  0.000000 ICntrl=     500 IOpCl=  0
         NMat0=    1 NMatS0=    1 NMatT0=    0 NMatD0=    1 NMtDS0=    0 NMtDT0=    0
         I1Cent=           4 NGrid=           0.
 Petite list used in FoFCou.
 Initial guess orbital symmetries:
       Occupied  (A) (A) (A) (A) (A) (A) (A) (A) (A) (A) (A) (A)
                 (A) (A) (A) (A) (A) (A) (A) (A) (A) (A) (A) (A)
                 (A) (A) (A) (A) (A) (A) (A) (A) (A) (A) (A) (A)
                 (A) (A) (A) (A) (A) (A) (A)
       Virtual   (A) (A) (A) (A) (A) (A) (A) (A) (A) (A) (A) (A)
                 (A) (A) (A) (A) (A) (A) (A) (A) (A) (A) (A) (A)
                 (A) (A) (A) (A) (A) (A) (A) (A) (A) (A) (A) (A)
                 (A) (A) (A) (A) (A) (A) (A) (A) (A) (A) (A) (A)
                 (A) (A) (A) (A) (A) (A) (A) (A) (A) (A) (A) (A)
                 (A) (A) (A) (A) (A) (A) (A) (A) (A) (A) (A) (A)
                 (A) (A) (A) (A) (A) (A) (A) (A) (A) (A) (A) (A)
                 (A) (A) (A) (A) (A) (A) (A) (A) (A) (A) (A) (A)
                 (A) (A) (A) (A) (A) (A) (A) (A) (A) (A) (A) (A)
                 (A) (A) (A) (A) (A) (A) (A) (A) (A) (A) (A) (A)
                 (A) (A) (A) (A) (A) (A) (A) (A) (A) (A) (A) (A)
                 (A) (A) (A) (A) (A) (A) (A) (A) (A) (A) (A) (A)
                 (A) (A) (A) (A) (A) (A) (A) (A) (A) (A) (A) (A)
                 (A) (A) (A) (A) (A) (A) (A) (A) (A) (A) (A) (A)
                 (A) (A) (A) (A) (A) (A) (A) (A) (A) (A) (A) (A)
                 (A) (A) (A) (A) (A) (A) (A) (A) (A) (A) (A) (A)
                 (A) (A) (A) (A) (A) (A) (A) (A) (A) (A) (A) (A)
                 (A) (A) (A) (A) (A) (A) (A) (A) (A) (A) (A) (A)
 The electronic state of the initial guess is 1-A.
 Requested convergence on RMS density matrix=1.00D-08 within 128 cycles.
 Requested convergence on MAX density matrix=1.00D-06.
 Requested convergence on             energy=1.00D-06.
 No special actions if energy rises.
 Error on total polarization charges =  0.01166
 SCF Done:  E(RmPW1PW91) =  -610.644513791     A.U. after   12 cycles
             Convg  =    0.5172D-08             -V/T =  2.0090
 Range of M.O.s used for correlation:     1   259
 NBasis=   259 NAE=    43 NBE=    43 NFC=     0 NFV=     0
 NROrb=    259 NOA=    43 NOB=    43 NVA=   216 NVB=   216

 **** Warning!!: The largest alpha MO coefficient is  0.75341345D+02

 NEqPCM:  Using equilibrium solvation (IEInf=0, Eps=  78.3553, EpsInf=   1.7778)
          Differentiating once with respect to magnetic field using GIAOs.
          Electric field/nuclear overlap derivatives assumed to be zero.
 FoFCou: FMM=F IPFlag=           0 FMFlag=    10101102 FMFlg1=           0
         NFxFlg=    40000000 DoJE=F BraDBF=F KetDBF=T FulRan=T
         Omega=  0.000000  0.000000  1.000000  0.000000  0.000000 ICntrl=    6100 IOpCl=  0
         NMat0=    1 NMatS0=    1 NMatT0=    0 NMatD0=    1 NMtDS0=    0 NMtDT0=    0
         I1Cent=           7 NGrid=        1529.
 Symmetry not used in FoFCou.
          There are     3 degrees of freedom in the 1st order CPHF.  IDoFFX=0.
      3 vectors produced by pass  0 Test12= 3.10D-13 3.33D-08 XBig12= 2.56D+01 1.54D+00.
 AX will form     3 AO Fock derivatives at one time.
      3 vectors produced by pass  1 Test12= 3.10D-13 3.33D-08 XBig12= 6.35D-02 5.41D-02.
      3 vectors produced by pass  2 Test12= 3.10D-13 3.33D-08 XBig12= 1.66D-04 3.12D-03.
      3 vectors produced by pass  3 Test12= 3.10D-13 3.33D-08 XBig12= 7.56D-07 1.94D-04.
      3 vectors produced by pass  4 Test12= 3.10D-13 3.33D-08 XBig12= 2.29D-09 9.23D-06.
      3 vectors produced by pass  5 Test12= 3.10D-13 3.33D-08 XBig12= 6.56D-12 4.55D-07.
 Inverted reduced A of dimension    18 with in-core refinement.
 Calculating GIAO nuclear magnetic shielding tensors.
 SCF GIAO Magnetic shielding tensor (ppm):
      1  C    Isotropic =   127.0958   Anisotropy =    45.1248
   XX=   117.4061   YX=   -12.8891   ZX=     7.7970
   XY=     1.2921   YY=   155.3092   ZY=    11.2671
   XZ=     2.5311   YZ=     4.2539   ZZ=   108.5721
   Eigenvalues:   104.4205   119.6879   157.1790
      2  C    Isotropic =   114.2136   Anisotropy =    36.5514
   XX=   107.4035   YX=     3.8140   ZX=     5.9588
   XY=    -4.6232   YY=   129.9445   ZY=   -17.0474
   XZ=     0.3654   YZ=   -16.6082   ZZ=   105.2927
   Eigenvalues:    96.1379   107.9216   138.5811
      3  C    Isotropic =    89.7079   Anisotropy =    28.1372
   XX=   101.6025   YX=    -7.9960   ZX=    15.4473
   XY=    -7.9382   YY=    83.2223   ZY=     3.1642
   XZ=     8.8170   YZ=    11.8049   ZZ=    84.2989
   Eigenvalues:    69.8798    90.7779   108.4660
      4  C    Isotropic =   126.0743   Anisotropy =    47.7517
   XX=   121.1859   YX=    -1.9613   ZX=    37.8232
   XY=    -1.2135   YY=   123.2725   ZY=     5.5564
   XZ=    21.5221   YZ=     1.8310   ZZ=   133.7646
   Eigenvalues:    96.6663   123.6479   157.9088
      5  C    Isotropic =   124.2574   Anisotropy =    43.5588
   XX=   145.4639   YX=   -24.8122   ZX=     4.9946
   XY=    -7.6626   YY=   111.6277   ZY=     0.0490
   XZ=     5.6972   YZ=   -10.8709   ZZ=   115.6807
   Eigenvalues:   104.2199   115.2557   153.2966
      6  C    Isotropic =   124.1776   Anisotropy =    41.6377
   XX=   131.8358   YX=    28.0549   ZX=     1.8570
   XY=    15.4341   YY=   127.5270   ZY=     2.8838
   XZ=    -0.9449   YZ=     7.8486   ZZ=   113.1700
   Eigenvalues:   105.8889   114.7077   151.9360
      7  O    Isotropic =   245.5797   Anisotropy =    60.6521
   XX=   254.4122   YX=   -21.8537   ZX=    28.0399
   XY=   -11.6599   YY=   242.7286   ZY=    21.6070
   XZ=    48.5307   YZ=    16.8184   ZZ=   239.5983
   Eigenvalues:   194.5335   256.1912   286.0144
      8  O    Isotropic =   260.2263   Anisotropy =   122.2425
   XX=   279.4539   YX=   -20.3434   ZX=    64.9948
   XY=   -15.7297   YY=   244.7564   ZY=    41.5008
   XZ=    66.1754   YZ=    73.5329   ZZ=   256.4684
   Eigenvalues:   162.3351   276.6224   341.7213
      9  O    Isotropic =   291.8284   Anisotropy =    39.0236
   XX=   305.9819   YX=    18.1466   ZX=    -3.9716
   XY=    13.6325   YY=   292.3842   ZY=     4.6119
   XZ=    -9.1461   YZ=   -11.9329   ZZ=   277.1190
   Eigenvalues:   275.6930   281.9481   317.8441
     10  O    Isotropic =   315.8769   Anisotropy =    45.2162
   XX=   328.7689   YX=     6.5449   ZX=   -20.1443
   XY=     4.9859   YY=   287.6450   ZY=    -3.3864
   XZ=   -10.7004   YZ=    -1.4635   ZZ=   331.2169
   Eigenvalues:   286.8497   314.7601   346.0211
     11  O    Isotropic =   300.6302   Anisotropy =    27.5707
   XX=   318.8075   YX=     0.4053   ZX=    10.7510
   XY=    -1.9985   YY=   301.8124   ZY=    -3.8804
   XZ=    -5.3492   YZ=    14.9277   ZZ=   281.2706
   Eigenvalues:   279.6772   303.2027   319.0106
     12  H    Isotropic =    27.7815   Anisotropy =     7.7989
   XX=    27.8865   YX=    -2.0436   ZX=     2.4885
   XY=    -2.4562   YY=    27.9869   ZY=    -3.2071
   XZ=     3.2856   YZ=    -2.1156   ZZ=    27.4710
   Eigenvalues:    24.6527    25.7110    32.9808
     13  H    Isotropic =    27.9286   Anisotropy =    11.0015
   XX=    33.1493   YX=    -2.4433   ZX=    -2.6960
   XY=    -2.4978   YY=    26.5047   ZY=     1.9197
   XZ=    -4.1656   YZ=     1.4890   ZZ=    24.1318
   Eigenvalues:    22.7503    25.7726    35.2630
     14  H    Isotropic =    27.2071   Anisotropy =     6.3498
   XX=    26.2071   YX=    -2.3148   ZX=    -2.1958
   XY=    -0.4173   YY=    29.8661   ZY=     2.0961
   XZ=    -1.5702   YZ=     1.9606   ZZ=    25.5483
   Eigenvalues:    23.8671    26.3140    31.4404
     15  H    Isotropic =    26.2762   Anisotropy =     6.3678
   XX=    25.4644   YX=     0.9403   ZX=    -0.0006
   XY=     0.2850   YY=    29.5482   ZY=    -1.9973
   XZ=     0.1736   YZ=    -2.9335   ZZ=    23.8159
   Eigenvalues:    22.8676    25.4395    30.5213
     16  H    Isotropic =    27.4262   Anisotropy =     9.0355
   XX=    25.5329   YX=     0.3951   ZX=    -0.5847
   XY=     0.3656   YY=    23.6197   ZY=    -0.1240
   XZ=    -2.5390   YZ=    -0.5073   ZZ=    33.1262
   Eigenvalues:    23.5468    25.2821    33.4499
     17  H    Isotropic =    28.1494   Anisotropy =     5.7466
   XX=    27.7543   YX=    -1.0471   ZX=     0.9481
   XY=    -2.1540   YY=    26.6325   ZY=     2.3967
   XZ=     1.4867   YZ=     3.9795   ZZ=    30.0615
   Eigenvalues:    23.7326    28.7352    31.9805
     18  H    Isotropic =    28.0152   Anisotropy =     5.7340
   XX=    26.9148   YX=     1.1895   ZX=     2.0203
   XY=     2.6125   YY=    26.9275   ZY=    -1.6563
   XZ=     2.5574   YZ=    -3.1983   ZZ=    30.2033
   Eigenvalues:    23.3880    28.8197    31.8378
     19  H    Isotropic =    27.8584   Anisotropy =    14.6811
   XX=    28.5257   YX=    -2.2356   ZX=     9.6077
   XY=    -1.3486   YY=    28.2181   ZY=    -0.6999
   XZ=     9.7596   YZ=     0.1097   ZZ=    26.8316
   Eigenvalues:    17.8616    28.0678    37.6458
     20  H    Isotropic =    29.3707   Anisotropy =    23.3619
   XX=    43.7793   YX=     3.7598   ZX=    -2.6265
   XY=     3.6328   YY=    21.4699   ZY=    -0.3118
   XZ=    -4.3916   YZ=    -0.7188   ZZ=    22.8629
   Eigenvalues:    20.8717    22.2951    44.9453
     21  H    Isotropic =    27.9699   Anisotropy =    15.7351
   XX=    26.5160   YX=     2.5852   ZX=     8.8367
   XY=     1.7563   YY=    30.1143   ZY=     4.6291
   XZ=     9.4939   YZ=     3.5246   ZZ=    27.2795
   Eigenvalues:    17.5869    27.8629    38.4600
 End of Minotr Frequency-dependent properties file   721 does not exist.
 End of Minotr Frequency-dependent properties file   722 does not exist.

 **********************************************************************

            Population analysis using the SCF density.

 **********************************************************************

 Orbital symmetries:
       Occupied  (A) (A) (A) (A) (A) (A) (A) (A) (A) (A) (A) (A)
                 (A) (A) (A) (A) (A) (A) (A) (A) (A) (A) (A) (A)
                 (A) (A) (A) (A) (A) (A) (A) (A) (A) (A) (A) (A)
                 (A) (A) (A) (A) (A) (A) (A)
       Virtual   (A) (A) (A) (A) (A) (A) (A) (A) (A) (A) (A) (A)
                 (A) (A) (A) (A) (A) (A) (A) (A) (A) (A) (A) (A)
                 (A) (A) (A) (A) (A) (A) (A) (A) (A) (A) (A) (A)
                 (A) (A) (A) (A) (A) (A) (A) (A) (A) (A) (A) (A)
                 (A) (A) (A) (A) (A) (A) (A) (A) (A) (A) (A) (A)
                 (A) (A) (A) (A) (A) (A) (A) (A) (A) (A) (A) (A)
                 (A) (A) (A) (A) (A) (A) (A) (A) (A) (A) (A) (A)
                 (A) (A) (A) (A) (A) (A) (A) (A) (A) (A) (A) (A)
                 (A) (A) (A) (A) (A) (A) (A) (A) (A) (A) (A) (A)
                 (A) (A) (A) (A) (A) (A) (A) (A) (A) (A) (A) (A)
                 (A) (A) (A) (A) (A) (A) (A) (A) (A) (A) (A) (A)
                 (A) (A) (A) (A) (A) (A) (A) (A) (A) (A) (A) (A)
                 (A) (A) (A) (A) (A) (A) (A) (A) (A) (A) (A) (A)
                 (A) (A) (A) (A) (A) (A) (A) (A) (A) (A) (A) (A)
                 (A) (A) (A) (A) (A) (A) (A) (A) (A) (A) (A) (A)
                 (A) (A) (A) (A) (A) (A) (A) (A) (A) (A) (A) (A)
                 (A) (A) (A) (A) (A) (A) (A) (A) (A) (A) (A) (A)
                 (A) (A) (A) (A) (A) (A) (A) (A) (A) (A) (A) (A)
 The electronic state is 1-A.
 Alpha  occ. eigenvalues --  -19.28115 -19.27486 -19.26745 -19.25960 -19.25943
 Alpha  occ. eigenvalues --  -10.35446 -10.32357 -10.31644 -10.31471 -10.31143
 Alpha  occ. eigenvalues --  -10.30494  -1.14103  -1.09567  -1.06853  -1.05165
 Alpha  occ. eigenvalues --   -1.03820  -0.81854  -0.80959  -0.69727  -0.68665
 Alpha  occ. eigenvalues --   -0.64840  -0.60592  -0.57811  -0.56505  -0.54187
 Alpha  occ. eigenvalues --   -0.52830  -0.50551  -0.48367  -0.47832  -0.46350
 Alpha  occ. eigenvalues --   -0.44409  -0.42628  -0.42337  -0.39866  -0.37943
 Alpha  occ. eigenvalues --   -0.37819  -0.36519  -0.35829  -0.34547  -0.33286
 Alpha  occ. eigenvalues --   -0.31817  -0.28435  -0.27181
 Alpha virt. eigenvalues --   -0.00164   0.01612   0.02411   0.02819   0.04268
 Alpha virt. eigenvalues --    0.04481   0.04737   0.05036   0.05792   0.07938
 Alpha virt. eigenvalues --    0.08427   0.08937   0.10366   0.10739   0.11437
 Alpha virt. eigenvalues --    0.11886   0.12585   0.13535   0.14003   0.14164
 Alpha virt. eigenvalues --    0.15125   0.15922   0.16268   0.16523   0.17082
 Alpha virt. eigenvalues --    0.18112   0.18973   0.19372   0.20464   0.21023
 Alpha virt. eigenvalues --    0.21853   0.22217   0.22283   0.22813   0.23587
 Alpha virt. eigenvalues --    0.24145   0.25510   0.25817   0.26537   0.26984
 Alpha virt. eigenvalues --    0.28023   0.28828   0.29398   0.29780   0.30514
 Alpha virt. eigenvalues --    0.31279   0.32261   0.32853   0.34237   0.34660
 Alpha virt. eigenvalues --    0.34907   0.35524   0.36089   0.36617   0.37614
 Alpha virt. eigenvalues --    0.38608   0.38712   0.39336   0.39667   0.40724
 Alpha virt. eigenvalues --    0.41477   0.42328   0.42848   0.45329   0.48719
 Alpha virt. eigenvalues --    0.49062   0.64460   0.66983   0.68411   0.70615
 Alpha virt. eigenvalues --    0.71898   0.73865   0.75802   0.76053   0.77775
 Alpha virt. eigenvalues --    0.79327   0.80685   0.82182   0.85630   0.86767
 Alpha virt. eigenvalues --    0.87761   0.90885   0.93593   0.95003   0.97991
 Alpha virt. eigenvalues --    1.01234   1.02049   1.02915   1.04881   1.06119
 Alpha virt. eigenvalues --    1.07234   1.08385   1.11578   1.12299   1.13413
 Alpha virt. eigenvalues --    1.20859   1.21785   1.22916   1.24760   1.27063
 Alpha virt. eigenvalues --    1.28234   1.29548   1.32212   1.32627   1.33214
 Alpha virt. eigenvalues --    1.35402   1.37356   1.38862   1.41071   1.41864
 Alpha virt. eigenvalues --    1.43664   1.45176   1.47144   1.49615   1.50192
 Alpha virt. eigenvalues --    1.52499   1.53748   1.57031   1.57506   1.59654
 Alpha virt. eigenvalues --    1.63404   1.64156   1.65771   1.68302   1.70195
 Alpha virt. eigenvalues --    1.72966   1.73170   1.74676   1.77103   1.78840
 Alpha virt. eigenvalues --    1.80629   1.82006   1.83046   1.85940   1.88251
 Alpha virt. eigenvalues --    1.88925   1.89942   1.94995   1.96930   1.97971
 Alpha virt. eigenvalues --    2.00431   2.01467   2.03467   2.05740   2.06046
 Alpha virt. eigenvalues --    2.10175   2.12899   2.13922   2.15378   2.16360
 Alpha virt. eigenvalues --    2.19364   2.21745   2.25939   2.29271   2.31220
 Alpha virt. eigenvalues --    2.34030   2.37249   2.39366   2.41313   2.43818
 Alpha virt. eigenvalues --    2.45488   2.47218   2.50544   2.52584   2.53621
 Alpha virt. eigenvalues --    2.55747   2.57213   2.60002   2.62061   2.63831
 Alpha virt. eigenvalues --    2.64847   2.66213   2.67407   2.68406   2.69989
 Alpha virt. eigenvalues --    2.70802   2.72793   2.75134   2.76084   2.79945
 Alpha virt. eigenvalues --    2.84273   2.86835   2.87895   2.90440   2.90526
 Alpha virt. eigenvalues --    2.93037   2.96026   2.97122   2.98168   3.03807
 Alpha virt. eigenvalues --    3.06395   3.09419   3.11121   3.15249   3.21885
 Alpha virt. eigenvalues --    3.33963   3.42129   3.43981   3.46942   3.48897
 Alpha virt. eigenvalues --    3.50777   3.52608   3.57935   3.60218   3.60964
 Alpha virt. eigenvalues --    4.23343   4.35110   4.40905   4.44149   4.50275
 Alpha virt. eigenvalues --    4.55773   4.63709   4.76768   4.90791   4.96409
 Alpha virt. eigenvalues --    5.04768
          Condensed to atoms (all electrons):
              1          2          3          4          5          6
     1  C    5.584614  -0.128814  -0.306981   0.126538   0.071150  -0.183932
     2  C   -0.128814   6.752364  -0.363310  -0.104809   0.350011  -0.782613
     3  C   -0.306981  -0.363310   6.453319  -0.112555  -0.946374   0.493759
     4  C    0.126538  -0.104809  -0.112555   6.580385  -0.522864  -0.439426
     5  C    0.071150   0.350011  -0.946374  -0.522864   7.918499  -1.171754
     6  C   -0.183932  -0.782613   0.493759  -0.439426  -1.171754   7.723372
     7  O   -0.033514   0.090412   0.264108   0.095565  -0.115083  -0.166798
     8  O    0.186621  -0.140622   0.297920   0.000988  -0.156065   0.059936
     9  O    0.004268  -0.111946  -0.020777  -0.068308   0.039090   0.295049
    10  O    0.015249   0.047452   0.055771   0.208931  -0.177600  -0.193702
    11  O    0.001185  -0.015443  -0.155540  -0.075195   0.308217   0.051576
    12  H    0.458171  -0.121769   0.009203   0.004225   0.016269  -0.000607
    13  H    0.376836  -0.014826  -0.008980  -0.005890   0.000789   0.027155
    14  H    0.016001   0.322416   0.002703   0.033632  -0.004652  -0.026572
    15  H    0.010677   0.013021   0.377372   0.026995  -0.060257   0.009826
    16  H   -0.002885   0.013399   0.022260   0.349053  -0.008370  -0.030764
    17  H    0.022079  -0.007365  -0.053686  -0.010901   0.387738  -0.015175
    18  H    0.059623  -0.124863  -0.017670  -0.043448   0.029755   0.410724
    19  H    0.008934  -0.026458  -0.001991  -0.079174   0.021828   0.048023
    20  H   -0.000349  -0.003923  -0.005983   0.050080  -0.015036  -0.005628
    21  H    0.000804   0.002407  -0.004943  -0.059549   0.031373   0.003586
              7          8          9         10         11         12
     1  C   -0.033514   0.186621   0.004268   0.015249   0.001185   0.458171
     2  C    0.090412  -0.140622  -0.111946   0.047452  -0.015443  -0.121769
     3  C    0.264108   0.297920  -0.020777   0.055771  -0.155540   0.009203
     4  C    0.095565   0.000988  -0.068308   0.208931  -0.075195   0.004225
     5  C   -0.115083  -0.156065   0.039090  -0.177600   0.308217   0.016269
     6  C   -0.166798   0.059936   0.295049  -0.193702   0.051576  -0.000607
     7  O    8.338694  -0.071699   0.010599  -0.000804   0.012014   0.012099
     8  O   -0.071699   8.340251  -0.001048   0.001152   0.005563  -0.051530
     9  O    0.010599  -0.001048   8.208587   0.005134  -0.001228   0.000611
    10  O   -0.000804   0.001152   0.005134   8.462774   0.007991  -0.000049
    11  O    0.012014   0.005563  -0.001228   0.007991   8.199945  -0.000021
    12  H    0.012099  -0.051530   0.000611  -0.000049  -0.000021   0.530895
    13  H   -0.006505  -0.045244  -0.000375   0.000067   0.000062  -0.037854
    14  H   -0.035827   0.009766  -0.003128  -0.000751   0.000087   0.001708
    15  H   -0.054095  -0.037180   0.000009  -0.000897   0.000874  -0.000256
    16  H    0.001030  -0.001508   0.002928  -0.037585   0.001765  -0.000007
    17  H    0.009460  -0.002324  -0.000306   0.005797  -0.052409  -0.000078
    18  H    0.008556  -0.000650  -0.054513   0.007866  -0.000273   0.001995
    19  H    0.001088  -0.000185   0.247873   0.031463  -0.000218  -0.000011
    20  H    0.001976   0.000066  -0.003406   0.234313  -0.003474   0.000000
    21  H    0.001653  -0.000575  -0.000171   0.028601   0.249998   0.000000
             13         14         15         16         17         18
     1  C    0.376836   0.016001   0.010677  -0.002885   0.022079   0.059623
     2  C   -0.014826   0.322416   0.013021   0.013399  -0.007365  -0.124863
     3  C   -0.008980   0.002703   0.377372   0.022260  -0.053686  -0.017670
     4  C   -0.005890   0.033632   0.026995   0.349053  -0.010901  -0.043448
     5  C    0.000789  -0.004652  -0.060257  -0.008370   0.387738   0.029755
     6  C    0.027155  -0.026572   0.009826  -0.030764  -0.015175   0.410724
     7  O   -0.006505  -0.035827  -0.054095   0.001030   0.009460   0.008556
     8  O   -0.045244   0.009766  -0.037180  -0.001508  -0.002324  -0.000650
     9  O   -0.000375  -0.003128   0.000009   0.002928  -0.000306  -0.054513
    10  O    0.000067  -0.000751  -0.000897  -0.037585   0.005797   0.007866
    11  O    0.000062   0.000087   0.000874   0.001765  -0.052409  -0.000273
    12  H   -0.037854   0.001708  -0.000256  -0.000007  -0.000078   0.001995
    13  H    0.541542  -0.002397   0.000584   0.000001  -0.000028   0.000088
    14  H   -0.002397   0.491294   0.000037  -0.000112   0.000026   0.002096
    15  H    0.000584   0.000037   0.530976  -0.000134   0.000106   0.000027
    16  H    0.000001  -0.000112  -0.000134   0.518226  -0.005675  -0.005716
    17  H   -0.000028   0.000026   0.000106  -0.005675   0.524030   0.000990
    18  H    0.000088   0.002096   0.000027  -0.005716   0.000990   0.535993
    19  H    0.000005  -0.000120  -0.000001   0.000135  -0.000004   0.006594
    20  H    0.000000   0.000016   0.000015  -0.010745  -0.000064  -0.000121
    21  H    0.000000  -0.000001  -0.000502   0.000345   0.006263  -0.000008
             19         20         21
     1  C    0.008934  -0.000349   0.000804
     2  C   -0.026458  -0.003923   0.002407
     3  C   -0.001991  -0.005983  -0.004943
     4  C   -0.079174   0.050080  -0.059549
     5  C    0.021828  -0.015036   0.031373
     6  C    0.048023  -0.005628   0.003586
     7  O    0.001088   0.001976   0.001653
     8  O   -0.000185   0.000066  -0.000575
     9  O    0.247873  -0.003406  -0.000171
    10  O    0.031463   0.234313   0.028601
    11  O   -0.000218  -0.003474   0.249998
    12  H   -0.000011   0.000000   0.000000
    13  H    0.000005   0.000000   0.000000
    14  H   -0.000120   0.000016  -0.000001
    15  H   -0.000001   0.000015  -0.000502
    16  H    0.000135  -0.010745   0.000345
    17  H   -0.000004  -0.000064   0.006263
    18  H    0.006594  -0.000121  -0.000008
    19  H    0.357063  -0.002430   0.000036
    20  H   -0.002430   0.334336  -0.002369
    21  H    0.000036  -0.002369   0.352959
 Mulliken atomic charges:
              1
     1  C   -0.286275
     2  C    0.355279
     3  C    0.022373
     4  C    0.045724
     5  C    0.003336
     6  C   -0.106036
     7  O   -0.362928
     8  O   -0.393632
     9  O   -0.548942
    10  O   -0.701174
    11  O   -0.535475
    12  H    0.177005
    13  H    0.174968
    14  H    0.193777
    15  H    0.182802
    16  H    0.194359
    17  H    0.191523
    18  H    0.182951
    19  H    0.387551
    20  H    0.432724
    21  H    0.390091
 Sum of Mulliken atomic charges =   0.00000
 Mulliken charges with hydrogens summed into heavy atoms:
              1
     1  C    0.065698
     2  C    0.549055
     3  C    0.205175
     4  C    0.240084
     5  C    0.194858
     6  C    0.076915
     7  O   -0.362928
     8  O   -0.393632
     9  O   -0.161391
    10  O   -0.268450
    11  O   -0.145384
 Sum of Mulliken charges with hydrogens summed into heavy atoms =   0.00000
 Electronic spatial extent (au):  <R**2>=           1454.6989
 Charge=              0.0000 electrons
 Dipole moment (field-independent basis, Debye):
    X=              1.4552    Y=              2.1030    Z=             -1.3215  Tot=              2.8786
 Quadrupole moment (field-independent basis, Debye-Ang):
   XX=            -54.4280   YY=            -77.3073   ZZ=            -64.9161
   XY=             -0.7382   XZ=             -0.1278   YZ=             -0.6856
 Traceless Quadrupole moment (field-independent basis, Debye-Ang):
   XX=             11.1225   YY=            -11.7569   ZZ=              0.6344
   XY=             -0.7382   XZ=             -0.1278   YZ=             -0.6856
 Octapole moment (field-independent basis, Debye-Ang**2):
  XXX=             39.3171  YYY=             -8.9292  ZZZ=             -6.9008  XYY=            -10.7817
  XXY=             24.4779  XXZ=              6.6231  XZZ=              5.0041  YZZ=              2.4731
  YYZ=             15.3265  XYZ=              2.2346
 Hexadecapole moment (field-independent basis, Debye-Ang**3):
 XXXX=           -677.1356 YYYY=           -887.3236 ZZZZ=           -223.7105 XXXY=              3.9305
 XXXZ=              6.5646 YYYX=             26.6257 YYYZ=             11.7145 ZZZX=              4.9605
 ZZZY=              0.8956 XXYY=           -275.4783 XXZZ=           -170.9348 YYZZ=           -149.3960
 XXYZ=            -12.1741 YYXZ=             14.4844 ZZXY=             -5.7637
 N-N= 7.254019471788D+02 E-N=-2.880668713449D+03  KE= 6.052023250887D+02
 1\1\GINC-COMPUTE-8-20\SP\RmPW1PW91\6-31+G(d,p)\C6H10O5\MMARCARINO.IQUI
 R\12-Apr-2019\0\\# mpw1pw91/6-31+g** nmr scrf=(pcm,solvent=water)\\com
 ment\\0,1\C,0,-2.282615,0.338331,-0.257928\C,0,-1.066531,0.930674,0.45
 6768\C,0,-0.720092,-1.252329,0.330518\C,0,1.150013,0.195922,-0.598914\
 C,0,0.551025,-1.236963,-0.551242\C,0,0.083877,1.319372,-0.516011\O,0,-
 0.683485,-0.197296,1.273503\O,0,-1.877158,-1.02193,-0.482077\O,0,0.705
 743,2.539315,-0.143787\O,0,2.024049,0.34804,0.543115\O,0,1.525023,-2.1
 52514,-0.079742\H,0,-2.510677,0.810362,-1.217621\H,0,-3.172533,0.36688
 2,0.38237\H,0,-1.299406,1.767618,1.116553\H,0,-0.814302,-2.202834,0.86
 3107\H,0,1.736167,0.322821,-1.512495\H,0,0.266092,-1.556904,-1.558076\
 H,0,-0.332982,1.483842,-1.51527\H,0,1.345392,2.287107,0.548736\H,0,2.9
 25317,0.4878,0.214123\H,0,2.009481,-1.66166,0.611332\\Version=EM64L-G0
 9RevC.01\State=1-A\HF=-610.6445138\RMSD=5.172e-09\Dipole=0.5725047,0.8
 273785,-0.5199125\Quadrupole=8.2693039,-8.7409351,0.4716312,-0.5487847
 ,-0.0949806,-0.5097398\PG=C01 [X(C6H10O5)]\\@


            ARSENIC

 FOR SMELTER FUMES HAVE I BEEN NAMED,
    I AM AN EVIL POISONOUS SMOKE...
 BUT WHEN FROM POISON I AM FREED,
    THROUGH ART AND SLEIGHT OF HAND,
 THEN CAN I CURE BOTH MAN AND BEAST,
    FROM DIRE DISEASE OFTTIMES DIRECT THEM;
 BUT PREPARE ME CORRECTLY, AND TAKE GREAT CARE
    THAT YOU FAITHFULLY KEEP WATCHFUL GUARD OVER ME;
 FOR ELSE I AM POISON, AND POISON REMAIN,
    THAT PIERCES THE HEART OF MANY A ONE.

 ATTRIBUTED TO THE PROBABLY MYTHICAL 15TH
 CENTURY MONK, BASILIUS VALENTINUS
 Job cpu time:  0 days  0 hours 20 minutes 43.8 seconds.
 File lengths (MBytes):  RWF=     83 Int=      0 D2E=      0 Chk=      5 Scr=      1
 Normal termination of Gaussian 09 at Fri Apr 12 11:32:51 2019.
