 Entering Gaussian System, Link 0=g09
 Input=/home/asarotti.iquir/SCF3/04_RRR_Levo09_OPTB_energy_b3lyp_smd.gjc
 Output=/home/asarotti.iquir/SCF3/04_RRR_Levo09_OPTB_energy_b3lyp_smd.log
 Initial command:
 /share/apps/Gaussian09/EM64T.SSE4.2-enabled/g09/l1.exe /tmp/Gau-8526.inp -scrdir=/tmp/
 Entering Link 1 = /share/apps/Gaussian09/EM64T.SSE4.2-enabled/g09/l1.exe PID=      8527.
  
 Copyright (c) 1988,1990,1992,1993,1995,1998,2003,2009,2011,
            Gaussian, Inc.  All Rights Reserved.
  
 This is part of the Gaussian(R) 09 program.  It is based on
 the Gaussian(R) 03 system (copyright 2003, Gaussian, Inc.),
 the Gaussian(R) 98 system (copyright 1998, Gaussian, Inc.),
 the Gaussian(R) 94 system (copyright 1995, Gaussian, Inc.),
 the Gaussian 92(TM) system (copyright 1992, Gaussian, Inc.),
 the Gaussian 90(TM) system (copyright 1990, Gaussian, Inc.),
 the Gaussian 88(TM) system (copyright 1988, Gaussian, Inc.),
 the Gaussian 86(TM) system (copyright 1986, Carnegie Mellon
 University), and the Gaussian 82(TM) system (copyright 1983,
 Carnegie Mellon University). Gaussian is a federally registered
 trademark of Gaussian, Inc.
  
 This software contains proprietary and confidential information,
 including trade secrets, belonging to Gaussian, Inc.
  
 This software is provided under written license and may be
 used, copied, transmitted, or stored only in accord with that
 written license.
  
 The following legend is applicable only to US Government
 contracts under FAR:
  
                    RESTRICTED RIGHTS LEGEND
  
 Use, reproduction and disclosure by the US Government is
 subject to restrictions as set forth in subparagraphs (a)
 and (c) of the Commercial Computer Software - Restricted
 Rights clause in FAR 52.227-19.
  
 Gaussian, Inc.
 340 Quinnipiac St., Bldg. 40, Wallingford CT 06492
  
  
 ---------------------------------------------------------------
 Warning -- This program may not be used in any manner that
 competes with the business of Gaussian, Inc. or will provide
 assistance to any competitor of Gaussian, Inc.  The licensee
 of this program is prohibited from giving any competitor of
 Gaussian, Inc. access to this program.  By using this program,
 the user acknowledges that Gaussian, Inc. is engaged in the
 business of creating and licensing software in the field of
 computational chemistry and represents and warrants to the
 licensee that it is not a competitor of Gaussian, Inc. and that
 it will not use this program in any manner prohibited above.
 ---------------------------------------------------------------
  

 Cite this work as:
 Gaussian 09, Revision C.01,
 M. J. Frisch, G. W. Trucks, H. B. Schlegel, G. E. Scuseria, 
 M. A. Robb, J. R. Cheeseman, G. Scalmani, V. Barone, B. Mennucci, 
 G. A. Petersson, H. Nakatsuji, M. Caricato, X. Li, H. P. Hratchian, 
 A. F. Izmaylov, J. Bloino, G. Zheng, J. L. Sonnenberg, M. Hada, 
 M. Ehara, K. Toyota, R. Fukuda, J. Hasegawa, M. Ishida, T. Nakajima, 
 Y. Honda, O. Kitao, H. Nakai, T. Vreven, J. A. Montgomery, Jr., 
 J. E. Peralta, F. Ogliaro, M. Bearpark, J. J. Heyd, E. Brothers, 
 K. N. Kudin, V. N. Staroverov, T. Keith, R. Kobayashi, J. Normand, 
 K. Raghavachari, A. Rendell, J. C. Burant, S. S. Iyengar, J. Tomasi, 
 M. Cossi, N. Rega, J. M. Millam, M. Klene, J. E. Knox, J. B. Cross, 
 V. Bakken, C. Adamo, J. Jaramillo, R. Gomperts, R. E. Stratmann, 
 O. Yazyev, A. J. Austin, R. Cammi, C. Pomelli, J. W. Ochterski, 
 R. L. Martin, K. Morokuma, V. G. Zakrzewski, G. A. Voth, 
 P. Salvador, J. J. Dannenberg, S. Dapprich, A. D. Daniels, 
 O. Farkas, J. B. Foresman, J. V. Ortiz, J. Cioslowski, 
 and D. J. Fox, Gaussian, Inc., Wallingford CT, 2010.
 
 ******************************************
 Gaussian 09:  EM64L-G09RevC.01 23-Sep-2011
                15-Apr-2019 
 ******************************************
 %nprocshared=4
 Will use up to    4 processors via shared memory.
 -----------------------------------------------------------
 # B3LYP/6-31+G** test scrf=(pcm,solvent=water,smd,dovacuum)
 -----------------------------------------------------------
 1/38=1/1;
 2/12=2,17=6,18=5,40=1/2;
 3/5=1,6=6,7=111,11=2,16=1,25=1,30=1,70=32101,72=1,74=-5/1,2,3;
 4//1;
 5/5=2,38=5,53=1/2;
 6/7=2,8=2,9=2,10=2,28=1/1;
 99/5=1,9=1/99;
 -------
 comment
 -------
 Charge =  0 Multiplicity = 1
 Symbolic Z-Matrix:
 6                    -2.29126   0.14379  -0.27144 
 6                    -1.13872   0.84664   0.44965 
 6                    -0.59854  -1.29366   0.33696 
 6                     1.13963   0.31447  -0.60845 
 6                     0.65737  -1.15791  -0.55718 
 6                    -0.02304   1.33922  -0.51448 
 8                    -0.66118  -0.24073   1.27415 
 8                    -1.76891  -1.18104  -0.47681 
 8                     0.49774   2.59965  -0.11694 
 8                     2.01306   0.59303   0.48579 
 8                     1.76356  -1.89804  -0.03945 
 1                    -2.54702   0.5845   -1.23878 
 1                    -3.18774   0.09931   0.35795 
 1                    -1.45349   1.65888   1.10619 
 1                    -0.612    -2.2459    0.87788 
 1                     1.68777   0.48261  -1.54444 
 1                     0.39873  -1.50219  -1.56562 
 1                    -0.45365   1.49089  -1.50989 
 1                     1.15525   2.38918   0.57263 
 1                     2.2878   -0.27117   0.84335 
 1                     1.49755  -2.82447   0.07645 
 
                          Input orientation:                          
 ---------------------------------------------------------------------
 Center     Atomic      Atomic             Coordinates (Angstroms)
 Number     Number       Type             X           Y           Z
 ---------------------------------------------------------------------
      1          6           0       -2.291256    0.143792   -0.271439
      2          6           0       -1.138725    0.846641    0.449650
      3          6           0       -0.598539   -1.293663    0.336959
      4          6           0        1.139627    0.314473   -0.608446
      5          6           0        0.657368   -1.157911   -0.557182
      6          6           0       -0.023041    1.339223   -0.514476
      7          8           0       -0.661180   -0.240733    1.274148
      8          8           0       -1.768910   -1.181035   -0.476808
      9          8           0        0.497744    2.599654   -0.116943
     10          8           0        2.013060    0.593033    0.485786
     11          8           0        1.763562   -1.898041   -0.039445
     12          1           0       -2.547019    0.584499   -1.238775
     13          1           0       -3.187738    0.099311    0.357951
     14          1           0       -1.453491    1.658878    1.106187
     15          1           0       -0.611997   -2.245900    0.877877
     16          1           0        1.687768    0.482611   -1.544442
     17          1           0        0.398726   -1.502192   -1.565616
     18          1           0       -0.453647    1.490891   -1.509888
     19          1           0        1.155249    2.389182    0.572626
     20          1           0        2.287795   -0.271169    0.843345
     21          1           0        1.497551   -2.824465    0.076451
 ---------------------------------------------------------------------
                    Distance matrix (angstroms):
                    1          2          3          4          5
     1  C    0.000000
     2  C    1.530455   0.000000
     3  C    2.302546   2.210294   0.000000
     4  C    3.451618   2.567812   2.549728   0.000000
     5  C    3.235810   2.873654   1.547650   1.550199   0.000000
     6  C    2.575446   1.554647   2.826345   1.552656   2.588524
     7  O    2.279001   1.445762   1.410996   2.663704   2.435889
     8  O    1.438815   2.316663   1.429920   3.273142   2.427719
     9  O    3.719361   2.464166   4.070108   2.423972   3.786632
    10  O    4.393443   3.162178   3.225247   1.427524   2.447752
    11  O    4.545817   4.024396   2.467078   2.368180   1.428114
    12  H    1.093333   2.214224   3.131614   3.749878   3.710614
    13  H    1.096262   2.182972   2.940199   4.439178   4.147640
    14  H    2.212507   1.090801   3.168620   3.386983   3.893176
    15  H    3.138704   3.166170   1.095230   3.439891   2.203271
    16  H    4.191416   3.478216   3.452828   1.097642   2.174332
    17  H    3.408836   3.455730   2.158197   2.182975   1.096524
    18  H    2.593306   2.173518   3.344485   2.176024   3.026244
    19  H    4.199121   2.767105   4.085910   2.387382   3.755825
    20  H    4.731030   3.625677   3.103682   1.941382   2.325098
    21  H    4.825623   4.535003   2.608604   3.232665   1.970990
                    6          7          8          9         10
     6  C    0.000000
     7  O    2.470356   0.000000
     8  O    3.066134   2.275320   0.000000
     9  O    1.420541   3.368388   4.422763   0.000000
    10  O    2.388102   2.910024   4.286864   2.585729   0.000000
    11  O    3.727933   3.217386   3.630942   4.673068   2.558040
    12  H    2.732157   3.248412   2.074405   3.819678   4.875295
    13  H    3.509105   2.708974   2.085469   4.478841   5.225744
    14  H    2.185158   2.065064   3.266568   2.487654   3.679388
    15  H    3.890838   2.044540   2.075465   5.069574   3.886412
    16  H    2.172897   3.739684   3.981982   2.817052   2.059086
    17  H    3.058827   3.283129   2.446894   4.351276   3.347281
    18  H    1.095112   3.285186   3.152199   2.018612   3.297500
    19  H    1.916396   3.272308   4.732702   0.975765   1.992368
    20  H    3.126820   2.980431   4.362054   3.516825   0.974768
    21  H    4.471878   3.573551   3.698206   5.518884   3.480316
                   11         12         13         14         15
    11  O    0.000000
    12  H    5.116884   0.000000
    13  H    5.353757   1.787586   0.000000
    14  H    4.930880   2.801596   2.449432   0.000000
    15  H    2.570168   4.029353   3.522042   4.000941   0.000000
    16  H    2.817493   4.247027   5.247531   4.275155   4.312925
    17  H    2.085347   3.624709   4.373516   4.534490   2.746875
    18  H    4.308489   2.297228   3.591736   2.805665   4.437353
    19  H    4.373209   4.499427   4.914380   2.761079   4.969942
    20  H    1.923760   5.333181   5.509476   4.217984   3.508497
    21  H    0.970801   5.450633   5.529886   5.465288   2.329638
                   16         17         18         19         20
    16  H    0.000000
    17  H    2.366753   0.000000
    18  H    2.367167   3.112586   0.000000
    19  H    2.898373   4.504131   2.780708   0.000000
    20  H    2.574829   3.299559   4.019710   2.904035   0.000000
    21  H    3.687849   2.377437   4.994591   5.248378   2.780635
                   21
    21  H    0.000000
 Stoichiometry    C6H10O5
 Framework group  C1[X(C6H10O5)]
 Deg. of freedom    57
 Full point group                 C1      NOp   1
 Largest Abelian subgroup         C1      NOp   1
 Largest concise Abelian subgroup C1      NOp   1
                         Standard orientation:                         
 ---------------------------------------------------------------------
 Center     Atomic      Atomic             Coordinates (Angstroms)
 Number     Number       Type             X           Y           Z
 ---------------------------------------------------------------------
      1          6           0       -2.291256    0.143790   -0.271439
      2          6           0       -1.138726    0.846640    0.449650
      3          6           0       -0.598538   -1.293663    0.336959
      4          6           0        1.139627    0.314474   -0.608446
      5          6           0        0.657369   -1.157910   -0.557182
      6          6           0       -0.023042    1.339223   -0.514476
      7          8           0       -0.661180   -0.240734    1.274148
      8          8           0       -1.768909   -1.181036   -0.476808
      9          8           0        0.497742    2.599654   -0.116943
     10          8           0        2.013059    0.593035    0.485786
     11          8           0        1.763563   -1.898040   -0.039445
     12          1           0       -2.547020    0.584497   -1.238775
     13          1           0       -3.187738    0.099308    0.357951
     14          1           0       -1.453492    1.658877    1.106187
     15          1           0       -0.611995   -2.245901    0.877877
     16          1           0        1.687767    0.482612   -1.544442
     17          1           0        0.398727   -1.502192   -1.565616
     18          1           0       -0.453648    1.490891   -1.509888
     19          1           0        1.155247    2.389183    0.572626
     20          1           0        2.287795   -0.271167    0.843345
     21          1           0        1.497553   -2.824464    0.076451
 ---------------------------------------------------------------------
 Rotational constants (GHZ):      1.4463875      1.3535308      0.8426641
 Standard basis: 6-31+G(d,p) (6D, 7F)
 There are   259 symmetry adapted basis functions of A   symmetry.
 Integral buffers will be    131072 words long.
 Raffenetti 2 integral format.
 Two-electron integral symmetry is turned on.
   259 basis functions,   422 primitive gaussians,   259 cartesian basis functions
    43 alpha electrons       43 beta electrons
       nuclear repulsion energy       726.4907464342 Hartrees.
 NAtoms=   21 NActive=   21 NUniq=   21 SFac= 1.00D+00 NAtFMM=   60 NAOKFM=F Big=F
 ------------------------------------------------------------------------------
 Polarizable Continuum Model (PCM)
 =================================
 Model                : C-PCM.
 Atomic radii         : SMD-Coulomb.
 Polarization charges : Total charges.
 Charge compensation  : None.
 Solution method      : Matrix inversion.
 Cavity type          : VdW (van der Waals Surface) (Alpha=1.000).
 Cavity algorithm     : GePol (No added spheres)
                        Default sphere list used, NSphG=   21.
                        Lebedev-Laikov grids with approx.  5.0 points / Ang**2.
                        Smoothing algorithm: Karplus/York (Gamma=1.0000).
                        Polarization charges: spherical gaussians, with
                                              point-specific exponents (IZeta= 3).
                        Self-potential: point-specific (ISelfS= 7).
                        Self-field    : sphere-specific E.n sum rule (ISelfD= 2).
 Solvent              : Water, Eps=  78.355300 Eps(inf)=   1.777849
 ------------------------------------------------------------------------------
 ------------------------------------------------------------------------------
 Atomic radii for non-electrostatic terms: SMD-CDS.
 ------------------------------------------------------------------------------
 Nuclear repulsion after PCM non-electrostatic terms =      726.4957107444 Hartrees.
 One-electron integrals computed using PRISM.
 NBasis=   259 RedAO= T  NBF=   259
 NBsUse=   259 1.00D-06 NBFU=   259
 Harris functional with IExCor=  402 diagonalized for initial guess.
 ExpMin= 4.38D-02 ExpMax= 5.48D+03 ExpMxC= 8.25D+02 IAcc=2 IRadAn=         4 AccDes= 0.00D+00
 HarFok:  IExCor=  402 AccDes= 0.00D+00 IRadAn=         4 IDoV= 1
 ScaDFX=  1.000000  1.000000  1.000000  1.000000
 FoFCou: FMM=F IPFlag=           0 FMFlag=      100000 FMFlg1=           0
         NFxFlg=           0 DoJE=T BraDBF=F KetDBF=T FulRan=T
         Omega=  0.000000  0.000000  1.000000  0.000000  0.000000 ICntrl=     500 IOpCl=  0
         NMat0=    1 NMatS0=    1 NMatT0=    0 NMatD0=    1 NMtDS0=    0 NMtDT0=    0
         I1Cent=           4 NGrid=           0.
 Petite list used in FoFCou.
 Initial guess orbital symmetries:
       Occupied  (A) (A) (A) (A) (A) (A) (A) (A) (A) (A) (A) (A)
                 (A) (A) (A) (A) (A) (A) (A) (A) (A) (A) (A) (A)
                 (A) (A) (A) (A) (A) (A) (A) (A) (A) (A) (A) (A)
                 (A) (A) (A) (A) (A) (A) (A)
       Virtual   (A) (A) (A) (A) (A) (A) (A) (A) (A) (A) (A) (A)
                 (A) (A) (A) (A) (A) (A) (A) (A) (A) (A) (A) (A)
                 (A) (A) (A) (A) (A) (A) (A) (A) (A) (A) (A) (A)
                 (A) (A) (A) (A) (A) (A) (A) (A) (A) (A) (A) (A)
                 (A) (A) (A) (A) (A) (A) (A) (A) (A) (A) (A) (A)
                 (A) (A) (A) (A) (A) (A) (A) (A) (A) (A) (A) (A)
                 (A) (A) (A) (A) (A) (A) (A) (A) (A) (A) (A) (A)
                 (A) (A) (A) (A) (A) (A) (A) (A) (A) (A) (A) (A)
                 (A) (A) (A) (A) (A) (A) (A) (A) (A) (A) (A) (A)
                 (A) (A) (A) (A) (A) (A) (A) (A) (A) (A) (A) (A)
                 (A) (A) (A) (A) (A) (A) (A) (A) (A) (A) (A) (A)
                 (A) (A) (A) (A) (A) (A) (A) (A) (A) (A) (A) (A)
                 (A) (A) (A) (A) (A) (A) (A) (A) (A) (A) (A) (A)
                 (A) (A) (A) (A) (A) (A) (A) (A) (A) (A) (A) (A)
                 (A) (A) (A) (A) (A) (A) (A) (A) (A) (A) (A) (A)
                 (A) (A) (A) (A) (A) (A) (A) (A) (A) (A) (A) (A)
                 (A) (A) (A) (A) (A) (A) (A) (A) (A) (A) (A) (A)
                 (A) (A) (A) (A) (A) (A) (A) (A) (A) (A) (A) (A)
 The electronic state of the initial guess is 1-A.
 Requested convergence on RMS density matrix=1.00D-08 within 128 cycles.
 Requested convergence on MAX density matrix=1.00D-06.
 Requested convergence on             energy=1.00D-06.
 No special actions if energy rises.
 Error on total polarization charges =  0.05803
 SCF Done:  E(RB3LYP) =  -610.799817070     A.U. after   12 cycles
             Convg  =    0.4400D-08             -V/T =  2.0090
 SMD-CDS (non-electrostatic) energy       (kcal/mol) =       3.12
 (included in total energy above)

 **********************************************************************

            Population analysis using the SCF density.

 **********************************************************************

 Orbital symmetries:
       Occupied  (A) (A) (A) (A) (A) (A) (A) (A) (A) (A) (A) (A)
                 (A) (A) (A) (A) (A) (A) (A) (A) (A) (A) (A) (A)
                 (A) (A) (A) (A) (A) (A) (A) (A) (A) (A) (A) (A)
                 (A) (A) (A) (A) (A) (A) (A)
       Virtual   (A) (A) (A) (A) (A) (A) (A) (A) (A) (A) (A) (A)
                 (A) (A) (A) (A) (A) (A) (A) (A) (A) (A) (A) (A)
                 (A) (A) (A) (A) (A) (A) (A) (A) (A) (A) (A) (A)
                 (A) (A) (A) (A) (A) (A) (A) (A) (A) (A) (A) (A)
                 (A) (A) (A) (A) (A) (A) (A) (A) (A) (A) (A) (A)
                 (A) (A) (A) (A) (A) (A) (A) (A) (A) (A) (A) (A)
                 (A) (A) (A) (A) (A) (A) (A) (A) (A) (A) (A) (A)
                 (A) (A) (A) (A) (A) (A) (A) (A) (A) (A) (A) (A)
                 (A) (A) (A) (A) (A) (A) (A) (A) (A) (A) (A) (A)
                 (A) (A) (A) (A) (A) (A) (A) (A) (A) (A) (A) (A)
                 (A) (A) (A) (A) (A) (A) (A) (A) (A) (A) (A) (A)
                 (A) (A) (A) (A) (A) (A) (A) (A) (A) (A) (A) (A)
                 (A) (A) (A) (A) (A) (A) (A) (A) (A) (A) (A) (A)
                 (A) (A) (A) (A) (A) (A) (A) (A) (A) (A) (A) (A)
                 (A) (A) (A) (A) (A) (A) (A) (A) (A) (A) (A) (A)
                 (A) (A) (A) (A) (A) (A) (A) (A) (A) (A) (A) (A)
                 (A) (A) (A) (A) (A) (A) (A) (A) (A) (A) (A) (A)
                 (A) (A) (A) (A) (A) (A) (A) (A) (A) (A) (A) (A)
 The electronic state is 1-A.
 Alpha  occ. eigenvalues --  -19.18242 -19.17893 -19.17509 -19.16630 -19.16586
 Alpha  occ. eigenvalues --  -10.29390 -10.25111 -10.24990 -10.24731 -10.24691
 Alpha  occ. eigenvalues --  -10.23821  -1.11160  -1.06035  -1.04123  -1.01642
 Alpha  occ. eigenvalues --   -1.01098  -0.78980  -0.77945  -0.67447  -0.65963
 Alpha  occ. eigenvalues --   -0.62678  -0.58937  -0.55107  -0.53774  -0.52802
 Alpha  occ. eigenvalues --   -0.49829  -0.48258  -0.47348  -0.45867  -0.44676
 Alpha  occ. eigenvalues --   -0.42179  -0.41176  -0.40564  -0.38255  -0.37060
 Alpha  occ. eigenvalues --   -0.36325  -0.35076  -0.34545  -0.32299  -0.30760
 Alpha  occ. eigenvalues --   -0.30482  -0.27196  -0.25633
 Alpha virt. eigenvalues --    0.00419   0.01690   0.02414   0.02643   0.04161
 Alpha virt. eigenvalues --    0.04635   0.05162   0.05482   0.05875   0.08510
 Alpha virt. eigenvalues --    0.08578   0.09100   0.10208   0.10725   0.11588
 Alpha virt. eigenvalues --    0.12080   0.12797   0.13653   0.14096   0.14490
 Alpha virt. eigenvalues --    0.15120   0.16305   0.16361   0.16785   0.17091
 Alpha virt. eigenvalues --    0.17992   0.18773   0.19666   0.20286   0.20442
 Alpha virt. eigenvalues --    0.21237   0.21390   0.22174   0.23518   0.24256
 Alpha virt. eigenvalues --    0.24283   0.24924   0.25451   0.26063   0.26996
 Alpha virt. eigenvalues --    0.27842   0.28126   0.28879   0.29130   0.30001
 Alpha virt. eigenvalues --    0.30607   0.31542   0.32074   0.33227   0.33512
 Alpha virt. eigenvalues --    0.34081   0.34802   0.35629   0.36332   0.36621
 Alpha virt. eigenvalues --    0.37347   0.38232   0.38869   0.39749   0.40129
 Alpha virt. eigenvalues --    0.41052   0.41539   0.42488   0.43683   0.44984
 Alpha virt. eigenvalues --    0.48873   0.63428   0.67103   0.67472   0.69076
 Alpha virt. eigenvalues --    0.70745   0.72927   0.74653   0.75356   0.76518
 Alpha virt. eigenvalues --    0.78068   0.79524   0.80267   0.83895   0.85240
 Alpha virt. eigenvalues --    0.86489   0.90394   0.92324   0.93641   0.95940
 Alpha virt. eigenvalues --    0.99943   1.00964   1.01741   1.04376   1.05361
 Alpha virt. eigenvalues --    1.06045   1.08885   1.10228   1.11177   1.12869
 Alpha virt. eigenvalues --    1.16130   1.20955   1.22827   1.24369   1.25404
 Alpha virt. eigenvalues --    1.26508   1.28250   1.29382   1.30879   1.32234
 Alpha virt. eigenvalues --    1.33340   1.35367   1.38027   1.38593   1.40145
 Alpha virt. eigenvalues --    1.41834   1.43812   1.45350   1.46860   1.50095
 Alpha virt. eigenvalues --    1.51588   1.54193   1.56178   1.57448   1.58741
 Alpha virt. eigenvalues --    1.61226   1.63051   1.65269   1.67008   1.68277
 Alpha virt. eigenvalues --    1.70071   1.71425   1.75108   1.76852   1.78725
 Alpha virt. eigenvalues --    1.80367   1.82136   1.82979   1.87305   1.87949
 Alpha virt. eigenvalues --    1.89791   1.91819   1.93207   1.94990   1.97153
 Alpha virt. eigenvalues --    1.98634   2.00669   2.01804   2.06008   2.06763
 Alpha virt. eigenvalues --    2.10124   2.11443   2.12479   2.13813   2.15747
 Alpha virt. eigenvalues --    2.18054   2.20771   2.24923   2.26115   2.32928
 Alpha virt. eigenvalues --    2.33532   2.36971   2.39489   2.41566   2.42601
 Alpha virt. eigenvalues --    2.44314   2.46299   2.47803   2.52643   2.53811
 Alpha virt. eigenvalues --    2.55740   2.58773   2.61434   2.61936   2.63185
 Alpha virt. eigenvalues --    2.63964   2.66083   2.67094   2.68255   2.70094
 Alpha virt. eigenvalues --    2.70524   2.73065   2.76375   2.76511   2.77639
 Alpha virt. eigenvalues --    2.79666   2.83334   2.86306   2.87453   2.90498
 Alpha virt. eigenvalues --    2.92053   2.94472   2.96458   3.01496   3.03366
 Alpha virt. eigenvalues --    3.04404   3.08504   3.10665   3.12626   3.20448
 Alpha virt. eigenvalues --    3.32702   3.40076   3.42346   3.44956   3.45982
 Alpha virt. eigenvalues --    3.48325   3.51114   3.53135   3.58194   3.58447
 Alpha virt. eigenvalues --    4.25528   4.33173   4.39803   4.43384   4.46569
 Alpha virt. eigenvalues --    4.54554   4.61655   4.73390   4.88305   4.92740
 Alpha virt. eigenvalues --    5.04141
          Condensed to atoms (all electrons):
              1          2          3          4          5          6
     1  C    5.427257   0.007896  -0.260124   0.083499   0.016626  -0.131812
     2  C    0.007896   6.731093  -0.526342  -0.113099   0.322635  -0.647414
     3  C   -0.260124  -0.526342   6.097360  -0.057680  -0.433795   0.309465
     4  C    0.083499  -0.113099  -0.057680   5.828672  -0.198172  -0.099727
     5  C    0.016626   0.322635  -0.433795  -0.198172   6.533209  -0.469861
     6  C   -0.131812  -0.647414   0.309465  -0.099727  -0.469861   6.552412
     7  O   -0.043415   0.077219   0.252071   0.042552  -0.145774  -0.094545
     8  O    0.170939  -0.167502   0.296450   0.008058  -0.167290   0.070910
     9  O    0.004442  -0.110723  -0.015156  -0.074795   0.027313   0.287516
    10  O    0.015346   0.020965  -0.004751   0.208679  -0.008346  -0.185118
    11  O    0.008036  -0.013364  -0.047618  -0.067102   0.116963   0.030719
    12  H    0.447397  -0.115043   0.015230   0.000005   0.015200   0.001859
    13  H    0.410782  -0.027796  -0.018901  -0.001955   0.000356   0.008621
    14  H   -0.002022   0.334321   0.021178   0.033944  -0.017189  -0.033187
    15  H    0.013378   0.002146   0.396562   0.021415  -0.069360   0.011176
    16  H   -0.004767   0.029715   0.021244   0.373206   0.012419  -0.103341
    17  H    0.018866   0.007226  -0.072377   0.008680   0.362242  -0.026491
    18  H    0.041069  -0.155550   0.002656  -0.061590   0.006150   0.489029
    19  H    0.004112  -0.027232  -0.002860  -0.064333   0.010244   0.056969
    20  H   -0.002454   0.004445   0.006845   0.014351  -0.038841  -0.001439
    21  H    0.000582   0.000355  -0.046113   0.003222   0.048470  -0.001275
              7          8          9         10         11         12
     1  C   -0.043415   0.170939   0.004442   0.015346   0.008036   0.447397
     2  C    0.077219  -0.167502  -0.110723   0.020965  -0.013364  -0.115043
     3  C    0.252071   0.296450  -0.015156  -0.004751  -0.047618   0.015230
     4  C    0.042552   0.008058  -0.074795   0.208679  -0.067102   0.000005
     5  C   -0.145774  -0.167290   0.027313  -0.008346   0.116963   0.015200
     6  C   -0.094545   0.070910   0.287516  -0.185118   0.030719   0.001859
     7  O    8.431187  -0.067727   0.006993   0.014129   0.017786   0.009438
     8  O   -0.067727   8.438613  -0.000581  -0.000710   0.004517  -0.047352
     9  O    0.006993  -0.000581   8.327367  -0.021133  -0.000734   0.000741
    10  O    0.014129  -0.000710  -0.021133   8.426853  -0.025511  -0.000044
    11  O    0.017786   0.004517  -0.000734  -0.025511   8.391925  -0.000035
    12  H    0.009438  -0.047352   0.000741  -0.000044  -0.000035   0.538215
    13  H   -0.001149  -0.047725  -0.000303   0.000070   0.000038  -0.040361
    14  H   -0.033769   0.008956  -0.001998  -0.002106   0.000125   0.001915
    15  H   -0.051011  -0.041349   0.000003  -0.001331  -0.004479  -0.000274
    16  H   -0.000628  -0.001931   0.004046  -0.052222   0.000027   0.000002
    17  H    0.009625   0.001683  -0.000399   0.003326  -0.037463  -0.000048
    18  H    0.009545  -0.000270  -0.063560   0.007065  -0.000043   0.001866
    19  H    0.001821  -0.000161   0.246566   0.024045  -0.000157  -0.000009
    20  H   -0.001685  -0.000291   0.001599   0.247295   0.027673   0.000001
    21  H   -0.001234   0.000655   0.000051   0.001508   0.244719   0.000000
             13         14         15         16         17         18
     1  C    0.410782  -0.002022   0.013378  -0.004767   0.018866   0.041069
     2  C   -0.027796   0.334321   0.002146   0.029715   0.007226  -0.155550
     3  C   -0.018901   0.021178   0.396562   0.021244  -0.072377   0.002656
     4  C   -0.001955   0.033944   0.021415   0.373206   0.008680  -0.061590
     5  C    0.000356  -0.017189  -0.069360   0.012419   0.362242   0.006150
     6  C    0.008621  -0.033187   0.011176  -0.103341  -0.026491   0.489029
     7  O   -0.001149  -0.033769  -0.051011  -0.000628   0.009625   0.009545
     8  O   -0.047725   0.008956  -0.041349  -0.001931   0.001683  -0.000270
     9  O   -0.000303  -0.001998   0.000003   0.004046  -0.000399  -0.063560
    10  O    0.000070  -0.002106  -0.001331  -0.052222   0.003326   0.007065
    11  O    0.000038   0.000125  -0.004479   0.000027  -0.037463  -0.000043
    12  H   -0.040361   0.001915  -0.000274   0.000002  -0.000048   0.001866
    13  H    0.556408  -0.003223   0.000556   0.000002  -0.000029   0.000167
    14  H   -0.003223   0.513283  -0.000018  -0.000132   0.000025   0.002083
    15  H    0.000556  -0.000018   0.548294  -0.000160   0.000367   0.000022
    16  H    0.000002  -0.000132  -0.000160   0.574748  -0.006474  -0.004922
    17  H   -0.000029   0.000025   0.000367  -0.006474   0.553839   0.001245
    18  H    0.000167   0.002083   0.000022  -0.004922   0.001245   0.545367
    19  H    0.000004  -0.000297   0.000000  -0.000318  -0.000008   0.006496
    20  H   -0.000001   0.000015  -0.000189   0.002031   0.000832  -0.000155
    21  H    0.000000   0.000000   0.004131  -0.000211  -0.004324   0.000002
             19         20         21
     1  C    0.004112  -0.002454   0.000582
     2  C   -0.027232   0.004445   0.000355
     3  C   -0.002860   0.006845  -0.046113
     4  C   -0.064333   0.014351   0.003222
     5  C    0.010244  -0.038841   0.048470
     6  C    0.056969  -0.001439  -0.001275
     7  O    0.001821  -0.001685  -0.001234
     8  O   -0.000161  -0.000291   0.000655
     9  O    0.246566   0.001599   0.000051
    10  O    0.024045   0.247295   0.001508
    11  O   -0.000157   0.027673   0.244719
    12  H   -0.000009   0.000001   0.000000
    13  H    0.000004  -0.000001   0.000000
    14  H   -0.000297   0.000015   0.000000
    15  H    0.000000  -0.000189   0.004131
    16  H   -0.000318   0.002031  -0.000211
    17  H   -0.000008   0.000832  -0.004324
    18  H    0.006496  -0.000155   0.000002
    19  H    0.338181  -0.000187   0.000001
    20  H   -0.000187   0.317268  -0.000936
    21  H    0.000001  -0.000936   0.326922
 Mulliken atomic charges:
              1
     1  C   -0.225633
     2  C    0.366049
     3  C    0.066658
     4  C    0.112170
     5  C    0.076802
     6  C   -0.024466
     7  O   -0.431429
     8  O   -0.457892
     9  O   -0.617254
    10  O   -0.668009
    11  O   -0.646021
    12  H    0.171297
    13  H    0.164437
    14  H    0.178095
    15  H    0.170120
    16  H    0.157664
    17  H    0.179657
    18  H    0.173327
    19  H    0.407124
    20  H    0.423824
    21  H    0.423476
 Sum of Mulliken atomic charges =   0.00000
 Mulliken charges with hydrogens summed into heavy atoms:
              1
     1  C    0.110102
     2  C    0.544145
     3  C    0.236779
     4  C    0.269834
     5  C    0.256459
     6  C    0.148861
     7  O   -0.431429
     8  O   -0.457892
     9  O   -0.210130
    10  O   -0.244184
    11  O   -0.222545
 Sum of Mulliken charges with hydrogens summed into heavy atoms =   0.00000
 Electronic spatial extent (au):  <R**2>=           1451.5685
 Charge=              0.0000 electrons
 Dipole moment (field-independent basis, Debye):
    X=             -1.7662    Y=             -3.6142    Z=             -1.2561  Tot=              4.2142
 Quadrupole moment (field-independent basis, Debye-Ang):
   XX=            -68.0136   YY=            -65.1306   ZZ=            -64.9466
   XY=             -8.8407   XZ=              0.3918   YZ=             -0.5646
 Traceless Quadrupole moment (field-independent basis, Debye-Ang):
   XX=             -1.9833   YY=              0.8997   ZZ=              1.0836
   XY=             -8.8407   XZ=              0.3918   YZ=             -0.5646
 Octapole moment (field-independent basis, Debye-Ang**2):
  XXX=            -16.1330  YYY=            -68.2976  ZZZ=             -6.0871  XYY=              9.0191
  XXY=             10.9310  XXZ=              6.4904  XZZ=              5.8155  YZZ=              2.9730
  YYZ=             15.0365  XYZ=              3.0855
 Hexadecapole moment (field-independent basis, Debye-Ang**3):
 XXXX=           -831.8780 YYYY=           -741.9593 ZZZZ=           -227.7002 XXXY=            -26.8291
 XXXZ=              8.9013 YYYX=            -46.4869 YYYZ=             12.4692 ZZZX=              8.3599
 ZZZY=              1.4885 XXYY=           -271.2270 XXZZ=           -166.9503 YYZZ=           -153.9474
 XXYZ=            -11.1437 YYXZ=              6.5769 ZZXY=             -6.4643
 N-N= 7.264957107444D+02 E-N=-2.882968323293D+03  KE= 6.053540611623D+02

 Test job not archived.
 1\1\GINC-COMPUTE-10-0\SP\RB3LYP\6-31+G(d,p)\C6H10O5\ASAROTTI.IQUIR\15-
 Apr-2019\0\\# B3LYP/6-31+G** test scrf=(pcm,solvent=water,smd,dovacuum
 )\\comment\\0,1\C,0,-2.291256,0.143792,-0.271439\C,0,-1.138725,0.84664
 1,0.44965\C,0,-0.598539,-1.293663,0.336959\C,0,1.139627,0.314473,-0.60
 8446\C,0,0.657368,-1.157911,-0.557182\C,0,-0.023041,1.339223,-0.514476
 \O,0,-0.66118,-0.240733,1.274148\O,0,-1.76891,-1.181035,-0.476808\O,0,
 0.497744,2.599654,-0.116943\O,0,2.01306,0.593033,0.485786\O,0,1.763562
 ,-1.898041,-0.039445\H,0,-2.547019,0.584499,-1.238775\H,0,-3.187738,0.
 099311,0.357951\H,0,-1.453491,1.658878,1.106187\H,0,-0.611997,-2.2459,
 0.877877\H,0,1.687768,0.482611,-1.544442\H,0,0.398726,-1.502192,-1.565
 616\H,0,-0.453647,1.490891,-1.509888\H,0,1.155249,2.389182,0.572626\H,
 0,2.287795,-0.271169,0.843345\H,0,1.497551,-2.824465,0.076451\\Version
 =EM64L-G09RevC.01\State=1-A\HF=-610.7998171\RMSD=4.400e-09\Dipole=-0.6
 948628,-1.4219436,-0.4941739\Quadrupole=-1.4745607,0.6688938,0.8056669
 ,-6.5728202,0.2913057,-0.4197939\PG=C01 [X(C6H10O5)]\\@


 THE WHOLE OF SCIENCE IS NOTHING MORE THAN A REFINEMENT OF EVEYDAY THINKING.
                                                              -- A. EINSTEIN
 Job cpu time:  0 days  0 hours 13 minutes  7.3 seconds.
 File lengths (MBytes):  RWF=     56 Int=      0 D2E=      0 Chk=      4 Scr=      1
 Normal termination of Gaussian 09 at Mon Apr 15 18:46:43 2019.
