 Entering Gaussian System, Link 0=g09
 Input=/home/mmarcarino.iquir/NMR/04_RRR_Levo12_OPTB_nmr.gjc
 Output=/home/mmarcarino.iquir/NMR/04_RRR_Levo12_OPTB_nmr.log
 Initial command:
 /share/apps/Gaussian09/EM64T.SSE4.2-enabled/g09/l1.exe /tmp/Gau-29517.inp -scrdir=/tmp/
 Entering Link 1 = /share/apps/Gaussian09/EM64T.SSE4.2-enabled/g09/l1.exe PID=     29518.
  
 Copyright (c) 1988,1990,1992,1993,1995,1998,2003,2009,2011,
            Gaussian, Inc.  All Rights Reserved.
  
 This is part of the Gaussian(R) 09 program.  It is based on
 the Gaussian(R) 03 system (copyright 2003, Gaussian, Inc.),
 the Gaussian(R) 98 system (copyright 1998, Gaussian, Inc.),
 the Gaussian(R) 94 system (copyright 1995, Gaussian, Inc.),
 the Gaussian 92(TM) system (copyright 1992, Gaussian, Inc.),
 the Gaussian 90(TM) system (copyright 1990, Gaussian, Inc.),
 the Gaussian 88(TM) system (copyright 1988, Gaussian, Inc.),
 the Gaussian 86(TM) system (copyright 1986, Carnegie Mellon
 University), and the Gaussian 82(TM) system (copyright 1983,
 Carnegie Mellon University). Gaussian is a federally registered
 trademark of Gaussian, Inc.
  
 This software contains proprietary and confidential information,
 including trade secrets, belonging to Gaussian, Inc.
  
 This software is provided under written license and may be
 used, copied, transmitted, or stored only in accord with that
 written license.
  
 The following legend is applicable only to US Government
 contracts under FAR:
  
                    RESTRICTED RIGHTS LEGEND
  
 Use, reproduction and disclosure by the US Government is
 subject to restrictions as set forth in subparagraphs (a)
 and (c) of the Commercial Computer Software - Restricted
 Rights clause in FAR 52.227-19.
  
 Gaussian, Inc.
 340 Quinnipiac St., Bldg. 40, Wallingford CT 06492
  
  
 ---------------------------------------------------------------
 Warning -- This program may not be used in any manner that
 competes with the business of Gaussian, Inc. or will provide
 assistance to any competitor of Gaussian, Inc.  The licensee
 of this program is prohibited from giving any competitor of
 Gaussian, Inc. access to this program.  By using this program,
 the user acknowledges that Gaussian, Inc. is engaged in the
 business of creating and licensing software in the field of
 computational chemistry and represents and warrants to the
 licensee that it is not a competitor of Gaussian, Inc. and that
 it will not use this program in any manner prohibited above.
 ---------------------------------------------------------------
  

 Cite this work as:
 Gaussian 09, Revision C.01,
 M. J. Frisch, G. W. Trucks, H. B. Schlegel, G. E. Scuseria, 
 M. A. Robb, J. R. Cheeseman, G. Scalmani, V. Barone, B. Mennucci, 
 G. A. Petersson, H. Nakatsuji, M. Caricato, X. Li, H. P. Hratchian, 
 A. F. Izmaylov, J. Bloino, G. Zheng, J. L. Sonnenberg, M. Hada, 
 M. Ehara, K. Toyota, R. Fukuda, J. Hasegawa, M. Ishida, T. Nakajima, 
 Y. Honda, O. Kitao, H. Nakai, T. Vreven, J. A. Montgomery, Jr., 
 J. E. Peralta, F. Ogliaro, M. Bearpark, J. J. Heyd, E. Brothers, 
 K. N. Kudin, V. N. Staroverov, T. Keith, R. Kobayashi, J. Normand, 
 K. Raghavachari, A. Rendell, J. C. Burant, S. S. Iyengar, J. Tomasi, 
 M. Cossi, N. Rega, J. M. Millam, M. Klene, J. E. Knox, J. B. Cross, 
 V. Bakken, C. Adamo, J. Jaramillo, R. Gomperts, R. E. Stratmann, 
 O. Yazyev, A. J. Austin, R. Cammi, C. Pomelli, J. W. Ochterski, 
 R. L. Martin, K. Morokuma, V. G. Zakrzewski, G. A. Voth, 
 P. Salvador, J. J. Dannenberg, S. Dapprich, A. D. Daniels, 
 O. Farkas, J. B. Foresman, J. V. Ortiz, J. Cioslowski, 
 and D. J. Fox, Gaussian, Inc., Wallingford CT, 2010.
 
 ******************************************
 Gaussian 09:  EM64L-G09RevC.01 23-Sep-2011
                12-Apr-2019 
 ******************************************
 %nprocshared=4
 Will use up to    4 processors via shared memory.
 ------------------------------------------------
 # mpw1pw91/6-31+g** nmr scrf=(pcm,solvent=water)
 ------------------------------------------------
 1/38=1/1;
 2/12=2,17=6,18=5,40=1/2;
 3/5=1,6=6,7=111,11=2,16=1,25=1,30=1,70=2201,72=1,74=-7/1,2,8,3;
 4//1;
 5/5=2,38=5,53=1/2;
 8/6=1,10=90,11=11/1;
 10/13=100,45=16/2;
 6/7=2,8=2,9=2,10=2,28=1/1;
 99/9=1/99;
 -------
 comment
 -------
 Charge =  0 Multiplicity = 1
 Symbolic Z-Matrix:
 6                    -2.27665   0.2375   -0.2817 
 6                    -1.09391   0.88359   0.44521 
 6                    -0.65804  -1.28116   0.34349 
 6                     1.15784   0.22898  -0.61195 
 6                     0.60914  -1.22251  -0.54175 
 6                     0.04606   1.3052   -0.52251 
 8                    -0.67438  -0.21552   1.27567 
 8                    -1.82495  -1.11239  -0.47111 
 8                     0.72023   2.48741  -0.08464 
 8                     2.06706   0.37256   0.47862 
 8                     1.61967  -2.09439  -0.06022 
 1                    -2.50239   0.68581  -1.25327 
 1                    -3.17777   0.25018   0.34272 
 1                    -1.37954   1.70881   1.10113 
 1                    -0.71074  -2.22857   0.8869 
 1                     1.70766   0.36887  -1.55188 
 1                     0.33276  -1.57169  -1.54106 
 1                    -0.37081   1.46803  -1.52491 
 1                     0.06838   3.19609   0.03671 
 1                     1.97443   1.29176   0.78981 
 1                     2.09043  -1.5802    0.62252 
 
                          Input orientation:                          
 ---------------------------------------------------------------------
 Center     Atomic      Atomic             Coordinates (Angstroms)
 Number     Number       Type             X           Y           Z
 ---------------------------------------------------------------------
      1          6           0       -2.276652    0.237499   -0.281695
      2          6           0       -1.093913    0.883586    0.445207
      3          6           0       -0.658042   -1.281163    0.343494
      4          6           0        1.157844    0.228981   -0.611949
      5          6           0        0.609136   -1.222510   -0.541751
      6          6           0        0.046061    1.305201   -0.522508
      7          8           0       -0.674377   -0.215521    1.275665
      8          8           0       -1.824949   -1.112387   -0.471110
      9          8           0        0.720226    2.487409   -0.084637
     10          8           0        2.067057    0.372559    0.478617
     11          8           0        1.619666   -2.094392   -0.060216
     12          1           0       -2.502385    0.685811   -1.253269
     13          1           0       -3.177768    0.250179    0.342720
     14          1           0       -1.379542    1.708810    1.101126
     15          1           0       -0.710739   -2.228572    0.886895
     16          1           0        1.707656    0.368866   -1.551884
     17          1           0        0.332755   -1.571685   -1.541056
     18          1           0       -0.370805    1.468030   -1.524911
     19          1           0        0.068383    3.196094    0.036707
     20          1           0        1.974432    1.291759    0.789810
     21          1           0        2.090435   -1.580199    0.622523
 ---------------------------------------------------------------------
                    Distance matrix (angstroms):
                    1          2          3          4          5
     1  C    0.000000
     2  C    1.531237   0.000000
     3  C    2.305882   2.210536   0.000000
     4  C    3.450348   2.572255   2.547714   0.000000
     5  C    3.244538   2.882725   1.546880   1.553330   0.000000
     6  C    2.567679   1.553632   2.816913   1.549939   2.589739
     7  O    2.279887   1.440037   1.415910   2.667902   2.442219
     8  O    1.436003   2.314726   1.433087   3.273554   2.437599
     9  O    3.752626   2.478726   4.035474   2.360098   3.739625
    10  O    4.411816   3.202186   3.190489   1.427101   2.389755
    11  O    4.546214   4.060458   2.451994   2.432232   1.418882
    12  H    1.093570   2.215339   3.133726   3.743963   3.718805
    13  H    1.096387   2.180404   2.948564   4.439524   4.158334
    14  H    2.209470   1.092158   3.167729   3.400419   3.904679
    15  H    3.146298   3.166613   1.093456   3.431866   2.189808
    16  H    4.183939   3.478807   3.451316   1.097879   2.181649
    17  H    3.415866   3.465397   2.148863   2.187786   1.094038
    18  H    2.586899   2.178491   3.336391   2.169219   3.027523
    19  H    3.788648   2.620209   4.546168   3.226676   4.488996
    20  H    4.509025   3.114498   3.707970   1.939392   3.155731
    21  H    4.815920   4.030105   2.778742   2.380500   1.917739
                    6          7          8          9         10
     6  C    0.000000
     7  O    2.462733   0.000000
     8  O    3.057458   2.275831   0.000000
     9  O    1.429631   3.331842   4.425586   0.000000
    10  O    2.440594   2.914890   4.272559   2.569786   0.000000
    11  O    3.774544   3.252287   3.605349   4.669314   2.564439
    12  H    2.722542   3.248002   2.074659   3.872554   4.896668
    13  H    3.500681   2.711868   2.085432   4.514664   5.248012
    14  H    2.198052   2.056884   3.260286   2.534024   3.748617
    15  H    3.879009   2.050570   2.081228   5.023148   3.827365
    16  H    2.167311   3.743077   3.980136   2.759720   2.062066
    17  H    3.065307   3.284420   2.451821   4.329842   3.296508
    18  H    1.097772   3.281726   3.143817   2.074577   3.340262
    19  H    1.971978   3.704838   4.733455   0.970494   3.487454
    20  H    2.332590   3.086120   4.669597   1.940945   0.974859
    21  H    3.717001   3.151686   4.092079   4.350055   1.958193
                   11         12         13         14         15
    11  O    0.000000
    12  H    5.113141   0.000000
    13  H    5.354880   1.786924   0.000000
    14  H    4.980794   2.801871   2.436473   0.000000
    15  H    2.519089   4.035335   3.539289   3.999521   0.000000
    16  H    2.881051   4.232502   5.241276   4.285406   4.306154
    17  H    2.030332   3.635537   4.380819   4.546948   2.723110
    18  H    4.335684   2.286764   3.584724   2.823401   4.426876
    19  H    5.514083   3.817644   4.394264   2.332700   5.545886
    20  H    3.509191   4.958148   5.275409   3.394111   4.428578
    21  H    0.975782   5.454117   5.584133   4.804933   2.887361
                   16         17         18         19         20
    16  H    0.000000
    17  H    2.378278   0.000000
    18  H    2.351359   3.120116   0.000000
    19  H    3.633739   5.029010   2.370178   0.000000
    20  H    2.531093   4.040712   3.299870   2.797620   0.000000
    21  H    2.945067   2.787577   4.467760   5.219660   2.879164
                   21
    21  H    0.000000
 Stoichiometry    C6H10O5
 Framework group  C1[X(C6H10O5)]
 Deg. of freedom    57
 Full point group                 C1      NOp   1
 Largest Abelian subgroup         C1      NOp   1
 Largest concise Abelian subgroup C1      NOp   1
                         Standard orientation:                         
 ---------------------------------------------------------------------
 Center     Atomic      Atomic             Coordinates (Angstroms)
 Number     Number       Type             X           Y           Z
 ---------------------------------------------------------------------
      1          6           0       -2.276652    0.237504   -0.281695
      2          6           0       -1.093911    0.883588    0.445207
      3          6           0       -0.658045   -1.281162    0.343494
      4          6           0        1.157844    0.228978   -0.611949
      5          6           0        0.609133   -1.222511   -0.541751
      6          6           0        0.046064    1.305201   -0.522508
      7          8           0       -0.674378   -0.215520    1.275665
      8          8           0       -1.824952   -1.112383   -0.471110
      9          8           0        0.720231    2.487407   -0.084637
     10          8           0        2.067058    0.372555    0.478617
     11          8           0        1.619661   -2.094396   -0.060216
     12          1           0       -2.502384    0.685816   -1.253269
     13          1           0       -3.177768    0.250186    0.342720
     14          1           0       -1.379538    1.708813    1.101126
     15          1           0       -0.710744   -2.228570    0.886895
     16          1           0        1.707657    0.368862   -1.551884
     17          1           0        0.332751   -1.571686   -1.541056
     18          1           0       -0.370802    1.468031   -1.524911
     19          1           0        0.068390    3.196094    0.036707
     20          1           0        1.974435    1.291755    0.789810
     21          1           0        2.090431   -1.580204    0.622523
 ---------------------------------------------------------------------
 Rotational constants (GHZ):      1.4484525      1.3514631      0.8419977
 Standard basis: 6-31+G(d,p) (6D, 7F)
 There are   259 symmetry adapted basis functions of A   symmetry.
 Integral buffers will be    131072 words long.
 Raffenetti 2 integral format.
 Two-electron integral symmetry is turned on.
   259 basis functions,   422 primitive gaussians,   259 cartesian basis functions
    43 alpha electrons       43 beta electrons
       nuclear repulsion energy       726.4121957039 Hartrees.
 NAtoms=   21 NActive=   21 NUniq=   21 SFac= 1.00D+00 NAtFMM=   60 NAOKFM=F Big=F
 ------------------------------------------------------------------------------
 Polarizable Continuum Model (PCM)
 =================================
 Model                : PCM.
 Atomic radii         : UFF (Universal Force Field).
 Polarization charges : Total charges.
 Charge compensation  : None.
 Solution method      : Matrix inversion.
 Cavity type          : Scaled VdW (van der Waals Surface) (Alpha=1.100).
 Cavity algorithm     : GePol (No added spheres)
                        Default sphere list used, NSphG=   21.
                        Lebedev-Laikov grids with approx.  5.0 points / Ang**2.
                        Smoothing algorithm: Karplus/York (Gamma=1.0000).
                        Polarization charges: spherical gaussians, with
                                              point-specific exponents (IZeta= 3).
                        Self-potential: point-specific (ISelfS= 7).
                        Self-field    : sphere-specific E.n sum rule (ISelfD= 2).
 Solvent              : Water, Eps=  78.355300 Eps(inf)=   1.777849
 ------------------------------------------------------------------------------
 One-electron integrals computed using PRISM.
 NBasis=   259 RedAO= T  NBF=   259
 NBsUse=   259 1.00D-06 NBFU=   259
 Harris functional with IExCor=  908 diagonalized for initial guess.
 ExpMin= 4.38D-02 ExpMax= 5.48D+03 ExpMxC= 8.25D+02 IAcc=2 IRadAn=         4 AccDes= 0.00D+00
 HarFok:  IExCor=  908 AccDes= 0.00D+00 IRadAn=         4 IDoV= 1
 ScaDFX=  1.000000  1.000000  1.000000  1.000000
 FoFCou: FMM=F IPFlag=           0 FMFlag=      100000 FMFlg1=           0
         NFxFlg=           0 DoJE=T BraDBF=F KetDBF=T FulRan=T
         Omega=  0.000000  0.000000  1.000000  0.000000  0.000000 ICntrl=     500 IOpCl=  0
         NMat0=    1 NMatS0=    1 NMatT0=    0 NMatD0=    1 NMtDS0=    0 NMtDT0=    0
         I1Cent=           4 NGrid=           0.
 Petite list used in FoFCou.
 Initial guess orbital symmetries:
       Occupied  (A) (A) (A) (A) (A) (A) (A) (A) (A) (A) (A) (A)
                 (A) (A) (A) (A) (A) (A) (A) (A) (A) (A) (A) (A)
                 (A) (A) (A) (A) (A) (A) (A) (A) (A) (A) (A) (A)
                 (A) (A) (A) (A) (A) (A) (A)
       Virtual   (A) (A) (A) (A) (A) (A) (A) (A) (A) (A) (A) (A)
                 (A) (A) (A) (A) (A) (A) (A) (A) (A) (A) (A) (A)
                 (A) (A) (A) (A) (A) (A) (A) (A) (A) (A) (A) (A)
                 (A) (A) (A) (A) (A) (A) (A) (A) (A) (A) (A) (A)
                 (A) (A) (A) (A) (A) (A) (A) (A) (A) (A) (A) (A)
                 (A) (A) (A) (A) (A) (A) (A) (A) (A) (A) (A) (A)
                 (A) (A) (A) (A) (A) (A) (A) (A) (A) (A) (A) (A)
                 (A) (A) (A) (A) (A) (A) (A) (A) (A) (A) (A) (A)
                 (A) (A) (A) (A) (A) (A) (A) (A) (A) (A) (A) (A)
                 (A) (A) (A) (A) (A) (A) (A) (A) (A) (A) (A) (A)
                 (A) (A) (A) (A) (A) (A) (A) (A) (A) (A) (A) (A)
                 (A) (A) (A) (A) (A) (A) (A) (A) (A) (A) (A) (A)
                 (A) (A) (A) (A) (A) (A) (A) (A) (A) (A) (A) (A)
                 (A) (A) (A) (A) (A) (A) (A) (A) (A) (A) (A) (A)
                 (A) (A) (A) (A) (A) (A) (A) (A) (A) (A) (A) (A)
                 (A) (A) (A) (A) (A) (A) (A) (A) (A) (A) (A) (A)
                 (A) (A) (A) (A) (A) (A) (A) (A) (A) (A) (A) (A)
                 (A) (A) (A) (A) (A) (A) (A) (A) (A) (A) (A) (A)
 The electronic state of the initial guess is 1-A.
 Requested convergence on RMS density matrix=1.00D-08 within 128 cycles.
 Requested convergence on MAX density matrix=1.00D-06.
 Requested convergence on             energy=1.00D-06.
 No special actions if energy rises.
 Error on total polarization charges =  0.01175
 SCF Done:  E(RmPW1PW91) =  -610.642561787     A.U. after   12 cycles
             Convg  =    0.4996D-08             -V/T =  2.0090
 Range of M.O.s used for correlation:     1   259
 NBasis=   259 NAE=    43 NBE=    43 NFC=     0 NFV=     0
 NROrb=    259 NOA=    43 NOB=    43 NVA=   216 NVB=   216

 **** Warning!!: The largest alpha MO coefficient is  0.51880286D+02

 NEqPCM:  Using equilibrium solvation (IEInf=0, Eps=  78.3553, EpsInf=   1.7778)
          Differentiating once with respect to magnetic field using GIAOs.
          Electric field/nuclear overlap derivatives assumed to be zero.
 FoFCou: FMM=F IPFlag=           0 FMFlag=    10101102 FMFlg1=           0
         NFxFlg=    40000000 DoJE=F BraDBF=F KetDBF=T FulRan=T
         Omega=  0.000000  0.000000  1.000000  0.000000  0.000000 ICntrl=    6100 IOpCl=  0
         NMat0=    1 NMatS0=    1 NMatT0=    0 NMatD0=    1 NMtDS0=    0 NMtDT0=    0
         I1Cent=           7 NGrid=        1539.
 Symmetry not used in FoFCou.
          There are     3 degrees of freedom in the 1st order CPHF.  IDoFFX=0.
      3 vectors produced by pass  0 Test12= 3.10D-13 3.33D-08 XBig12= 2.18D+01 7.22D-01.
 AX will form     3 AO Fock derivatives at one time.
      3 vectors produced by pass  1 Test12= 3.10D-13 3.33D-08 XBig12= 5.03D-02 2.90D-02.
      3 vectors produced by pass  2 Test12= 3.10D-13 3.33D-08 XBig12= 1.08D-04 1.63D-03.
      3 vectors produced by pass  3 Test12= 3.10D-13 3.33D-08 XBig12= 4.98D-07 1.47D-04.
      3 vectors produced by pass  4 Test12= 3.10D-13 3.33D-08 XBig12= 1.76D-09 7.41D-06.
      3 vectors produced by pass  5 Test12= 3.10D-13 3.33D-08 XBig12= 6.22D-12 3.33D-07.
 Inverted reduced A of dimension    18 with in-core refinement.
 Calculating GIAO nuclear magnetic shielding tensors.
 SCF GIAO Magnetic shielding tensor (ppm):
      1  C    Isotropic =   127.7909   Anisotropy =    46.5420
   XX=   117.8378   YX=   -14.3715   ZX=     7.6441
   XY=    -0.8819   YY=   156.6662   ZY=    10.8394
   XZ=     3.1422   YZ=     3.1866   ZZ=   108.8687
   Eigenvalues:   104.5419   120.0118   158.8189
      2  C    Isotropic =   115.5010   Anisotropy =    35.8448
   XX=   109.6995   YX=     3.2331   ZX=     8.6862
   XY=    -4.6597   YY=   130.5452   ZY=   -16.2465
   XZ=     2.1688   YZ=   -17.1990   ZZ=   106.2582
   Eigenvalues:    96.2014   110.9040   139.3975
      3  C    Isotropic =    89.4609   Anisotropy =    27.9779
   XX=   101.9006   YX=    -7.4243   ZX=    15.4356
   XY=    -6.6816   YY=    82.3007   ZY=     4.1953
   XZ=     8.2145   YZ=    12.5906   ZZ=    84.1814
   Eigenvalues:    69.3627    90.9071   108.1128
      4  C    Isotropic =   130.0824   Anisotropy =    47.7539
   XX=   133.6199   YX=     4.1246   ZX=    30.6861
   XY=     3.7890   YY=   115.5364   ZY=     4.3405
   XZ=    16.7456   YZ=     2.2388   ZZ=   141.0909
   Eigenvalues:   112.9743   115.3546   161.9183
      5  C    Isotropic =   123.9140   Anisotropy =    44.1841
   XX=   146.1189   YX=   -23.2764   ZX=     7.0692
   XY=    -6.0129   YY=   109.6048   ZY=     0.1522
   XZ=     8.0354   YZ=   -10.5534   ZZ=   116.0182
   Eigenvalues:   103.9055   114.4664   153.3700
      6  C    Isotropic =   123.3171   Anisotropy =    41.2363
   XX=   127.5259   YX=    28.8259   ZX=     3.7268
   XY=    16.1500   YY=   127.4664   ZY=     2.1601
   XZ=     2.1026   YZ=     7.3764   ZZ=   114.9591
   Eigenvalues:   104.8260   114.3174   150.8080
      7  O    Isotropic =   248.3654   Anisotropy =    62.0400
   XX=   255.2875   YX=   -22.5855   ZX=    32.4299
   XY=   -11.8489   YY=   246.7253   ZY=    22.8378
   XZ=    47.6582   YZ=    20.5020   ZZ=   243.0834
   Eigenvalues:   194.1323   261.2385   289.7254
      8  O    Isotropic =   260.4338   Anisotropy =   123.5941
   XX=   280.9927   YX=   -17.4623   ZX=    63.8680
   XY=   -13.5930   YY=   244.1775   ZY=    43.8293
   XZ=    63.9876   YZ=    76.6575   ZZ=   256.1311
   Eigenvalues:   162.5080   275.9634   342.8298
      9  O    Isotropic =   287.9465   Anisotropy =    45.4302
   XX=   302.7251   YX=   -14.4601   ZX=   -31.7415
   XY=     7.1634   YY=   304.3520   ZY=    13.5759
   XZ=   -22.5630   YZ=     0.5886   ZZ=   256.7624
   Eigenvalues:   243.7730   301.8331   318.2333
     10  O    Isotropic =   321.3230   Anisotropy =    49.1797
   XX=   291.7508   YX=   -14.8272   ZX=   -33.2936
   XY=    -2.5063   YY=   336.9566   ZY=     7.9393
   XZ=     1.8702   YZ=    18.5127   ZZ=   335.2617
   Eigenvalues:   286.2941   323.5655   354.1095
     11  O    Isotropic =   306.1104   Anisotropy =    27.6272
   XX=   324.2938   YX=    -1.5535   ZX=     6.9940
   XY=    -2.4613   YY=   303.2233   ZY=    -4.3799
   XZ=    -8.5295   YZ=    13.9665   ZZ=   290.8141
   Eigenvalues:   289.1781   304.6246   324.5285
     12  H    Isotropic =    27.8288   Anisotropy =     7.7906
   XX=    27.9214   YX=    -1.8711   ZX=     2.6461
   XY=    -2.3639   YY=    27.8209   ZY=    -3.2157
   XZ=     3.4363   YZ=    -2.0002   ZZ=    27.7441
   Eigenvalues:    24.6746    25.7893    33.0226
     13  H    Isotropic =    27.9406   Anisotropy =    10.9728
   XX=    33.3971   YX=    -2.2005   ZX=    -2.6055
   XY=    -2.4337   YY=    26.4314   ZY=     1.7893
   XZ=    -3.9962   YZ=     1.3044   ZZ=    23.9932
   Eigenvalues:    22.7533    25.8126    35.2558
     14  H    Isotropic =    27.3638   Anisotropy =     6.4417
   XX=    26.3860   YX=    -2.2860   ZX=    -2.4556
   XY=    -0.7492   YY=    29.9698   ZY=     2.0651
   XZ=    -1.6344   YZ=     1.8253   ZZ=    25.7355
   Eigenvalues:    23.9374    26.4956    31.6582
     15  H    Isotropic =    26.2265   Anisotropy =     6.2873
   XX=    25.3197   YX=     0.6878   ZX=     0.1007
   XY=     0.0692   YY=    29.4795   ZY=    -2.0273
   XZ=     0.3684   YZ=    -2.8829   ZZ=    23.8804
   Eigenvalues:    22.9046    25.3569    30.4180
     16  H    Isotropic =    27.2827   Anisotropy =     9.6489
   XX=    25.3563   YX=     0.4364   ZX=    -1.1337
   XY=     0.3924   YY=    23.3763   ZY=    -0.4178
   XZ=    -3.2126   YZ=    -0.5663   ZZ=    33.1155
   Eigenvalues:    23.2927    24.8401    33.7153
     17  H    Isotropic =    28.1914   Anisotropy =     5.6989
   XX=    28.0268   YX=    -0.8989   ZX=     1.1241
   XY=    -2.2488   YY=    26.5633   ZY=     2.4382
   XZ=     1.2614   YZ=     4.1349   ZZ=    29.9841
   Eigenvalues:    23.6800    28.9035    31.9907
     18  H    Isotropic =    27.7322   Anisotropy =     5.8767
   XX=    26.2621   YX=     1.3668   ZX=     2.5122
   XY=     2.5588   YY=    26.8965   ZY=    -1.2422
   XZ=     2.6834   YZ=    -3.0601   ZZ=    30.0380
   Eigenvalues:    22.9795    28.5671    31.6500
     19  H    Isotropic =    29.4253   Anisotropy =    18.7367
   XX=    29.5704   YX=    -6.8642   ZX=    -0.1960
   XY=    -6.4155   YY=    37.8647   ZY=     2.6151
   XZ=    -1.7085   YZ=     2.7156   ZZ=    20.8408
   Eigenvalues:    20.4327    25.9268    41.9164
     20  H    Isotropic =    27.7354   Anisotropy =    18.7316
   XX=    23.9709   YX=    -3.1661   ZX=     5.4132
   XY=    -2.7523   YY=    38.1454   ZY=     5.1994
   XZ=     4.2577   YZ=     6.9981   ZZ=    21.0900
   Eigenvalues:    15.5144    27.4687    40.2232
     21  H    Isotropic =    27.8145   Anisotropy =    15.8949
   XX=    26.2849   YX=     2.3103   ZX=     9.0775
   XY=     1.6439   YY=    30.5490   ZY=     4.8051
   XZ=     9.5000   YZ=     4.0543   ZZ=    26.6097
   Eigenvalues:    16.9278    28.1047    38.4112
 End of Minotr Frequency-dependent properties file   721 does not exist.
 End of Minotr Frequency-dependent properties file   722 does not exist.

 **********************************************************************

            Population analysis using the SCF density.

 **********************************************************************

 Orbital symmetries:
       Occupied  (A) (A) (A) (A) (A) (A) (A) (A) (A) (A) (A) (A)
                 (A) (A) (A) (A) (A) (A) (A) (A) (A) (A) (A) (A)
                 (A) (A) (A) (A) (A) (A) (A) (A) (A) (A) (A) (A)
                 (A) (A) (A) (A) (A) (A) (A)
       Virtual   (A) (A) (A) (A) (A) (A) (A) (A) (A) (A) (A) (A)
                 (A) (A) (A) (A) (A) (A) (A) (A) (A) (A) (A) (A)
                 (A) (A) (A) (A) (A) (A) (A) (A) (A) (A) (A) (A)
                 (A) (A) (A) (A) (A) (A) (A) (A) (A) (A) (A) (A)
                 (A) (A) (A) (A) (A) (A) (A) (A) (A) (A) (A) (A)
                 (A) (A) (A) (A) (A) (A) (A) (A) (A) (A) (A) (A)
                 (A) (A) (A) (A) (A) (A) (A) (A) (A) (A) (A) (A)
                 (A) (A) (A) (A) (A) (A) (A) (A) (A) (A) (A) (A)
                 (A) (A) (A) (A) (A) (A) (A) (A) (A) (A) (A) (A)
                 (A) (A) (A) (A) (A) (A) (A) (A) (A) (A) (A) (A)
                 (A) (A) (A) (A) (A) (A) (A) (A) (A) (A) (A) (A)
                 (A) (A) (A) (A) (A) (A) (A) (A) (A) (A) (A) (A)
                 (A) (A) (A) (A) (A) (A) (A) (A) (A) (A) (A) (A)
                 (A) (A) (A) (A) (A) (A) (A) (A) (A) (A) (A) (A)
                 (A) (A) (A) (A) (A) (A) (A) (A) (A) (A) (A) (A)
                 (A) (A) (A) (A) (A) (A) (A) (A) (A) (A) (A) (A)
                 (A) (A) (A) (A) (A) (A) (A) (A) (A) (A) (A) (A)
                 (A) (A) (A) (A) (A) (A) (A) (A) (A) (A) (A) (A)
 The electronic state is 1-A.
 Alpha  occ. eigenvalues --  -19.27737 -19.27649 -19.26814 -19.26098 -19.25741
 Alpha  occ. eigenvalues --  -10.35483 -10.32448 -10.32073 -10.31868 -10.31039
 Alpha  occ. eigenvalues --  -10.30679  -1.14280  -1.09447  -1.07329  -1.04714
 Alpha  occ. eigenvalues --   -1.03984  -0.82222  -0.80782  -0.70324  -0.68591
 Alpha  occ. eigenvalues --   -0.65187  -0.61027  -0.57806  -0.55639  -0.55030
 Alpha  occ. eigenvalues --   -0.52315  -0.50668  -0.48755  -0.47745  -0.46335
 Alpha  occ. eigenvalues --   -0.44662  -0.43035  -0.42714  -0.40411  -0.38262
 Alpha  occ. eigenvalues --   -0.37910  -0.36572  -0.35774  -0.33883  -0.32570
 Alpha  occ. eigenvalues --   -0.31836  -0.29109  -0.26706
 Alpha virt. eigenvalues --    0.00281   0.01577   0.02144   0.02513   0.04156
 Alpha virt. eigenvalues --    0.04419   0.04901   0.05295   0.05694   0.08352
 Alpha virt. eigenvalues --    0.08383   0.08995   0.09859   0.10734   0.11428
 Alpha virt. eigenvalues --    0.11988   0.12763   0.13301   0.13924   0.14108
 Alpha virt. eigenvalues --    0.15081   0.15972   0.16053   0.16809   0.17080
 Alpha virt. eigenvalues --    0.17944   0.19103   0.19187   0.20155   0.21096
 Alpha virt. eigenvalues --    0.21450   0.22099   0.23118   0.23779   0.23985
 Alpha virt. eigenvalues --    0.24650   0.25247   0.25571   0.26068   0.27526
 Alpha virt. eigenvalues --    0.28213   0.28701   0.29533   0.29830   0.30422
 Alpha virt. eigenvalues --    0.30949   0.32404   0.32976   0.33994   0.34164
 Alpha virt. eigenvalues --    0.35046   0.35657   0.36451   0.36757   0.37449
 Alpha virt. eigenvalues --    0.38040   0.38968   0.39738   0.40186   0.40889
 Alpha virt. eigenvalues --    0.41957   0.42171   0.42973   0.44456   0.45617
 Alpha virt. eigenvalues --    0.49847   0.64204   0.67352   0.68481   0.70231
 Alpha virt. eigenvalues --    0.72207   0.72845   0.74981   0.76046   0.77851
 Alpha virt. eigenvalues --    0.79008   0.80704   0.81326   0.84550   0.86343
 Alpha virt. eigenvalues --    0.87555   0.90170   0.93161   0.95190   0.97801
 Alpha virt. eigenvalues --    1.00730   1.02311   1.03090   1.05356   1.05760
 Alpha virt. eigenvalues --    1.07737   1.09066   1.11796   1.12067   1.14195
 Alpha virt. eigenvalues --    1.16872   1.22488   1.22848   1.25624   1.26624
 Alpha virt. eigenvalues --    1.27571   1.30137   1.30966   1.32486   1.33563
 Alpha virt. eigenvalues --    1.36186   1.36278   1.38551   1.40468   1.41245
 Alpha virt. eigenvalues --    1.42252   1.46841   1.47196   1.47952   1.49951
 Alpha virt. eigenvalues --    1.51805   1.55296   1.56786   1.58773   1.61221
 Alpha virt. eigenvalues --    1.63390   1.64035   1.65225   1.66579   1.67518
 Alpha virt. eigenvalues --    1.71949   1.72735   1.76648   1.78212   1.78809
 Alpha virt. eigenvalues --    1.80385   1.81051   1.83140   1.87728   1.89521
 Alpha virt. eigenvalues --    1.89725   1.92451   1.94738   1.95764   1.96811
 Alpha virt. eigenvalues --    2.00353   2.02043   2.03600   2.05187   2.08762
 Alpha virt. eigenvalues --    2.09527   2.11971   2.14214   2.14548   2.15661
 Alpha virt. eigenvalues --    2.19473   2.22725   2.23844   2.27460   2.33005
 Alpha virt. eigenvalues --    2.35901   2.36405   2.37587   2.42036   2.42666
 Alpha virt. eigenvalues --    2.46464   2.46939   2.49731   2.53063   2.55152
 Alpha virt. eigenvalues --    2.58446   2.58995   2.61546   2.62980   2.62991
 Alpha virt. eigenvalues --    2.65232   2.66112   2.67794   2.68920   2.71181
 Alpha virt. eigenvalues --    2.71695   2.73153   2.74171   2.76945   2.79166
 Alpha virt. eigenvalues --    2.79790   2.85245   2.86977   2.88290   2.92203
 Alpha virt. eigenvalues --    2.93596   2.94646   2.97285   3.02122   3.04075
 Alpha virt. eigenvalues --    3.06577   3.10265   3.11826   3.12296   3.22008
 Alpha virt. eigenvalues --    3.34017   3.41297   3.43579   3.46297   3.47020
 Alpha virt. eigenvalues --    3.49984   3.52292   3.53935   3.59775   3.60976
 Alpha virt. eigenvalues --    4.28645   4.36792   4.41751   4.44771   4.48779
 Alpha virt. eigenvalues --    4.56108   4.63283   4.77162   4.89156   4.96859
 Alpha virt. eigenvalues --    5.06124
          Condensed to atoms (all electrons):
              1          2          3          4          5          6
     1  C    5.536050  -0.044331  -0.297201   0.115535   0.096700  -0.237993
     2  C   -0.044331   6.356674  -0.336455  -0.077827   0.064123  -0.303744
     3  C   -0.297201  -0.336455   6.570381  -0.195403  -0.926528   0.432081
     4  C    0.115535  -0.077827  -0.195403   5.976391  -0.188956  -0.126866
     5  C    0.096700   0.064123  -0.926528  -0.188956   7.061269  -0.511719
     6  C   -0.237993  -0.303744   0.432081  -0.126866  -0.511719   6.512049
     7  O   -0.045920   0.145881   0.294755   0.031980  -0.095550  -0.197473
     8  O    0.183394  -0.129878   0.295833  -0.005221  -0.137915   0.053540
     9  O    0.025601  -0.056551  -0.028259  -0.102318   0.062946   0.148726
    10  O    0.010638   0.012736   0.033156   0.274557  -0.190094  -0.063045
    11  O   -0.000326  -0.010039  -0.182966  -0.082202   0.365099   0.043807
    12  H    0.462138  -0.127438   0.007409   0.005972   0.017410  -0.001191
    13  H    0.377093  -0.014041  -0.005582  -0.004898  -0.001339   0.025514
    14  H    0.019991   0.319224  -0.002169   0.028697   0.002299  -0.025602
    15  H    0.010972   0.014397   0.372859   0.025450  -0.050009   0.006081
    16  H   -0.004122   0.018554   0.039846   0.359609  -0.066411  -0.014515
    17  H    0.020086  -0.001049  -0.056986  -0.030089   0.425167  -0.028223
    18  H    0.055436  -0.095036  -0.009456  -0.027361   0.019975   0.346629
    19  H    0.000822  -0.052789   0.001666   0.012247  -0.007639   0.055261
    20  H    0.000528  -0.004095  -0.000716  -0.010405   0.010449  -0.012359
    21  H    0.000422   0.002298  -0.003763  -0.045014   0.028843  -0.004868
              7          8          9         10         11         12
     1  C   -0.045920   0.183394   0.025601   0.010638  -0.000326   0.462138
     2  C    0.145881  -0.129878  -0.056551   0.012736  -0.010039  -0.127438
     3  C    0.294755   0.295833  -0.028259   0.033156  -0.182966   0.007409
     4  C    0.031980  -0.005221  -0.102318   0.274557  -0.082202   0.005972
     5  C   -0.095550  -0.137915   0.062946  -0.190094   0.365099   0.017410
     6  C   -0.197473   0.053540   0.148726  -0.063045   0.043807  -0.001191
     7  O    8.316602  -0.076146   0.018434   0.012636   0.008750   0.012742
     8  O   -0.076146   8.332084  -0.000518  -0.000374   0.005550  -0.051828
     9  O    0.018434  -0.000518   8.332120  -0.019131  -0.000811   0.000202
    10  O    0.012636  -0.000374  -0.019131   8.340107  -0.018566  -0.000109
    11  O    0.008750   0.005550  -0.000811  -0.018566   8.209409  -0.000022
    12  H    0.012742  -0.051828   0.000202  -0.000109  -0.000022   0.531176
    13  H   -0.006787  -0.045913  -0.000106   0.000047   0.000065  -0.037926
    14  H   -0.038275   0.009637  -0.002893  -0.000708   0.000078   0.001890
    15  H   -0.055847  -0.036489   0.000050  -0.001444   0.000592  -0.000259
    16  H    0.001359  -0.001922   0.000158  -0.052660   0.000955  -0.000004
    17  H    0.010154  -0.004421  -0.000166   0.006208  -0.056749  -0.000076
    18  H    0.009152  -0.000930  -0.036139   0.005469  -0.000480   0.002373
    19  H   -0.001177   0.000111   0.241098   0.001100   0.000057   0.000064
    20  H   -0.001611  -0.000064   0.027193   0.249977   0.001290   0.000000
    21  H    0.002482  -0.000661  -0.000200   0.023689   0.251718   0.000000
             13         14         15         16         17         18
     1  C    0.377093   0.019991   0.010972  -0.004122   0.020086   0.055436
     2  C   -0.014041   0.319224   0.014397   0.018554  -0.001049  -0.095036
     3  C   -0.005582  -0.002169   0.372859   0.039846  -0.056986  -0.009456
     4  C   -0.004898   0.028697   0.025450   0.359609  -0.030089  -0.027361
     5  C   -0.001339   0.002299  -0.050009  -0.066411   0.425167   0.019975
     6  C    0.025514  -0.025602   0.006081  -0.014515  -0.028223   0.346629
     7  O   -0.006787  -0.038275  -0.055847   0.001359   0.010154   0.009152
     8  O   -0.045913   0.009637  -0.036489  -0.001922  -0.004421  -0.000930
     9  O   -0.000106  -0.002893   0.000050   0.000158  -0.000166  -0.036139
    10  O    0.000047  -0.000708  -0.001444  -0.052660   0.006208   0.005469
    11  O    0.000065   0.000078   0.000592   0.000955  -0.056749  -0.000480
    12  H   -0.037926   0.001890  -0.000259  -0.000004  -0.000076   0.002373
    13  H    0.539256  -0.002691   0.000554   0.000001  -0.000024   0.000085
    14  H   -0.002691   0.497786   0.000049  -0.000134   0.000022   0.001919
    15  H    0.000554   0.000049   0.530013  -0.000152  -0.000143   0.000019
    16  H    0.000001  -0.000134  -0.000152   0.552522  -0.004116  -0.004898
    17  H   -0.000024   0.000022  -0.000143  -0.004116   0.524225   0.001180
    18  H    0.000085   0.001919   0.000019  -0.004898   0.001180   0.551292
    19  H   -0.000029   0.002770   0.000000  -0.000235   0.000003  -0.003962
    20  H    0.000001  -0.000190   0.000008   0.001987  -0.000128   0.000734
    21  H    0.000000   0.000000  -0.000426   0.000046   0.006116  -0.000011
             19         20         21
     1  C    0.000822   0.000528   0.000422
     2  C   -0.052789  -0.004095   0.002298
     3  C    0.001666  -0.000716  -0.003763
     4  C    0.012247  -0.010405  -0.045014
     5  C   -0.007639   0.010449   0.028843
     6  C    0.055261  -0.012359  -0.004868
     7  O   -0.001177  -0.001611   0.002482
     8  O    0.000111  -0.000064  -0.000661
     9  O    0.241098   0.027193  -0.000200
    10  O    0.001100   0.249977   0.023689
    11  O    0.000057   0.001290   0.251718
    12  H    0.000064   0.000000   0.000000
    13  H   -0.000029   0.000001   0.000000
    14  H    0.002770  -0.000190   0.000000
    15  H    0.000000   0.000008  -0.000426
    16  H   -0.000235   0.001987   0.000046
    17  H    0.000003  -0.000128   0.006116
    18  H   -0.003962   0.000734  -0.000011
    19  H    0.350972  -0.000938   0.000000
    20  H   -0.000938   0.325160   0.000088
    21  H    0.000000   0.000088   0.346752
 Mulliken atomic charges:
              1
     1  C   -0.285514
     2  C    0.319383
     3  C   -0.002500
     4  C    0.066123
     5  C    0.021880
     6  C   -0.096089
     7  O   -0.346140
     8  O   -0.387869
     9  O   -0.609435
    10  O   -0.624188
    11  O   -0.535207
    12  H    0.177477
    13  H    0.176720
    14  H    0.188301
    15  H    0.183725
    16  H    0.174132
    17  H    0.189007
    18  H    0.184012
    19  H    0.400598
    20  H    0.413094
    21  H    0.392490
 Sum of Mulliken atomic charges =   0.00000
 Mulliken charges with hydrogens summed into heavy atoms:
              1
     1  C    0.068684
     2  C    0.507684
     3  C    0.181224
     4  C    0.240255
     5  C    0.210887
     6  C    0.087923
     7  O   -0.346140
     8  O   -0.387869
     9  O   -0.208837
    10  O   -0.211094
    11  O   -0.142717
 Sum of Mulliken charges with hydrogens summed into heavy atoms =   0.00000
 Electronic spatial extent (au):  <R**2>=           1450.3685
 Charge=              0.0000 electrons
 Dipole moment (field-independent basis, Debye):
    X=             -3.5385    Y=              5.8127    Z=             -1.1369  Tot=              6.8994
 Quadrupole moment (field-independent basis, Debye-Ang):
   XX=            -68.8935   YY=            -62.3131   ZZ=            -64.4392
   XY=             -4.4595   XZ=              0.5734   YZ=             -1.1628
 Traceless Quadrupole moment (field-independent basis, Debye-Ang):
   XX=             -3.6782   YY=              2.9022   ZZ=              0.7761
   XY=             -4.4595   XZ=              0.5734   YZ=             -1.1628
 Octapole moment (field-independent basis, Debye-Ang**2):
  XXX=            -12.8057  YYY=             47.7024  ZZZ=             -5.1623  XYY=            -18.3615
  XXY=             17.8886  XXZ=              7.7908  XZZ=              5.6986  YZZ=              3.0529
  YYZ=             12.5214  XYZ=              1.7866
 Hexadecapole moment (field-independent basis, Debye-Ang**3):
 XXXX=           -823.2397 YYYY=           -680.1710 ZZZZ=           -223.4260 XXXY=            -15.1175
 XXXZ=              9.3653 YYYX=              3.5173 YYYZ=              4.1645 ZZZX=              8.0361
 ZZZY=              1.7768 XXYY=           -289.0814 XXZZ=           -165.5309 YYZZ=           -151.2225
 XXYZ=            -10.1664 YYXZ=              8.5132 ZZXY=             -4.8633
 N-N= 7.264121957039D+02 E-N=-2.882717654286D+03  KE= 6.052069694788D+02
 1\1\GINC-COMPUTE-8-21\SP\RmPW1PW91\6-31+G(d,p)\C6H10O5\MMARCARINO.IQUI
 R\12-Apr-2019\0\\# mpw1pw91/6-31+g** nmr scrf=(pcm,solvent=water)\\com
 ment\\0,1\C,0,-2.276652,0.237499,-0.281695\C,0,-1.093913,0.883586,0.44
 5207\C,0,-0.658042,-1.281163,0.343494\C,0,1.157844,0.228981,-0.611949\
 C,0,0.609136,-1.22251,-0.541751\C,0,0.046061,1.305201,-0.522508\O,0,-0
 .674377,-0.215521,1.275665\O,0,-1.824949,-1.112387,-0.47111\O,0,0.7202
 26,2.487409,-0.084637\O,0,2.067057,0.372559,0.478617\O,0,1.619666,-2.0
 94392,-0.060216\H,0,-2.502385,0.685811,-1.253269\H,0,-3.177768,0.25017
 9,0.34272\H,0,-1.379542,1.70881,1.101126\H,0,-0.710739,-2.228572,0.886
 895\H,0,1.707656,0.368866,-1.551884\H,0,0.332755,-1.571685,-1.541056\H
 ,0,-0.370805,1.46803,-1.524911\H,0,0.068383,3.196094,0.036707\H,0,1.97
 4432,1.291759,0.78981\H,0,2.090435,-1.580199,0.622523\\Version=EM64L-G
 09RevC.01\State=1-A\HF=-610.6425618\RMSD=4.996e-09\Dipole=-1.3921624,2
 .2869084,-0.4473006\Quadrupole=-2.7346466,2.157669,0.5769776,-3.315562
 4,0.4263316,-0.8645049\PG=C01 [X(C6H10O5)]\\@


 THE DIFFICULTY IN SCIENCE IS OFTEN NOT SO MUCH HOW
 TO MAKE A DISCOVERY BUT RATHER TO KNOW ONE HAS MADE IT.

                                                   -- J. D. BERNAL
 Job cpu time:  0 days  0 hours 17 minutes 14.1 seconds.
 File lengths (MBytes):  RWF=     83 Int=      0 D2E=      0 Chk=      5 Scr=      1
 Normal termination of Gaussian 09 at Fri Apr 12 11:37:19 2019.
