 Entering Gaussian System, Link 0=g09
 Input=/home/asarotti.iquir/SCF3/04_RRR_Levo05_OPTB_energy_b3lyp_smd.gjc
 Output=/home/asarotti.iquir/SCF3/04_RRR_Levo05_OPTB_energy_b3lyp_smd.log
 Initial command:
 /share/apps/Gaussian09/EM64T.SSE4.2-enabled/g09/l1.exe /tmp/Gau-7508.inp -scrdir=/tmp/
 Entering Link 1 = /share/apps/Gaussian09/EM64T.SSE4.2-enabled/g09/l1.exe PID=      7509.
  
 Copyright (c) 1988,1990,1992,1993,1995,1998,2003,2009,2011,
            Gaussian, Inc.  All Rights Reserved.
  
 This is part of the Gaussian(R) 09 program.  It is based on
 the Gaussian(R) 03 system (copyright 2003, Gaussian, Inc.),
 the Gaussian(R) 98 system (copyright 1998, Gaussian, Inc.),
 the Gaussian(R) 94 system (copyright 1995, Gaussian, Inc.),
 the Gaussian 92(TM) system (copyright 1992, Gaussian, Inc.),
 the Gaussian 90(TM) system (copyright 1990, Gaussian, Inc.),
 the Gaussian 88(TM) system (copyright 1988, Gaussian, Inc.),
 the Gaussian 86(TM) system (copyright 1986, Carnegie Mellon
 University), and the Gaussian 82(TM) system (copyright 1983,
 Carnegie Mellon University). Gaussian is a federally registered
 trademark of Gaussian, Inc.
  
 This software contains proprietary and confidential information,
 including trade secrets, belonging to Gaussian, Inc.
  
 This software is provided under written license and may be
 used, copied, transmitted, or stored only in accord with that
 written license.
  
 The following legend is applicable only to US Government
 contracts under FAR:
  
                    RESTRICTED RIGHTS LEGEND
  
 Use, reproduction and disclosure by the US Government is
 subject to restrictions as set forth in subparagraphs (a)
 and (c) of the Commercial Computer Software - Restricted
 Rights clause in FAR 52.227-19.
  
 Gaussian, Inc.
 340 Quinnipiac St., Bldg. 40, Wallingford CT 06492
  
  
 ---------------------------------------------------------------
 Warning -- This program may not be used in any manner that
 competes with the business of Gaussian, Inc. or will provide
 assistance to any competitor of Gaussian, Inc.  The licensee
 of this program is prohibited from giving any competitor of
 Gaussian, Inc. access to this program.  By using this program,
 the user acknowledges that Gaussian, Inc. is engaged in the
 business of creating and licensing software in the field of
 computational chemistry and represents and warrants to the
 licensee that it is not a competitor of Gaussian, Inc. and that
 it will not use this program in any manner prohibited above.
 ---------------------------------------------------------------
  

 Cite this work as:
 Gaussian 09, Revision C.01,
 M. J. Frisch, G. W. Trucks, H. B. Schlegel, G. E. Scuseria, 
 M. A. Robb, J. R. Cheeseman, G. Scalmani, V. Barone, B. Mennucci, 
 G. A. Petersson, H. Nakatsuji, M. Caricato, X. Li, H. P. Hratchian, 
 A. F. Izmaylov, J. Bloino, G. Zheng, J. L. Sonnenberg, M. Hada, 
 M. Ehara, K. Toyota, R. Fukuda, J. Hasegawa, M. Ishida, T. Nakajima, 
 Y. Honda, O. Kitao, H. Nakai, T. Vreven, J. A. Montgomery, Jr., 
 J. E. Peralta, F. Ogliaro, M. Bearpark, J. J. Heyd, E. Brothers, 
 K. N. Kudin, V. N. Staroverov, T. Keith, R. Kobayashi, J. Normand, 
 K. Raghavachari, A. Rendell, J. C. Burant, S. S. Iyengar, J. Tomasi, 
 M. Cossi, N. Rega, J. M. Millam, M. Klene, J. E. Knox, J. B. Cross, 
 V. Bakken, C. Adamo, J. Jaramillo, R. Gomperts, R. E. Stratmann, 
 O. Yazyev, A. J. Austin, R. Cammi, C. Pomelli, J. W. Ochterski, 
 R. L. Martin, K. Morokuma, V. G. Zakrzewski, G. A. Voth, 
 P. Salvador, J. J. Dannenberg, S. Dapprich, A. D. Daniels, 
 O. Farkas, J. B. Foresman, J. V. Ortiz, J. Cioslowski, 
 and D. J. Fox, Gaussian, Inc., Wallingford CT, 2010.
 
 ******************************************
 Gaussian 09:  EM64L-G09RevC.01 23-Sep-2011
                15-Apr-2019 
 ******************************************
 %nprocshared=4
 Will use up to    4 processors via shared memory.
 -----------------------------------------------------------
 # B3LYP/6-31+G** test scrf=(pcm,solvent=water,smd,dovacuum)
 -----------------------------------------------------------
 1/38=1/1;
 2/12=2,17=6,18=5,40=1/2;
 3/5=1,6=6,7=111,11=2,16=1,25=1,30=1,70=32101,72=1,74=-5/1,2,3;
 4//1;
 5/5=2,38=5,53=1/2;
 6/7=2,8=2,9=2,10=2,28=1/1;
 99/5=1,9=1/99;
 -------
 comment
 -------
 Charge =  0 Multiplicity = 1
 Symbolic Z-Matrix:
 6                    -2.00509  -0.77497   0.66425 
 6                    -1.01531  -1.07435  -0.47123 
 6                    -1.04222   1.12906  -0.20992 
 6                     0.85177  -0.0575    0.90938 
 6                     0.42657   1.26829   0.24734 
 6                     0.42078  -1.26241   0.03777 
 8                    -1.09686   0.1459   -1.22903 
 8                    -1.87434   0.65096   0.84667 
 8                     1.28629  -1.35058  -1.0934 
 8                     2.27372  -0.06023   1.05856 
 8                     1.22873   1.61321  -0.87355 
 1                    -1.76998  -1.28807   1.60177 
 1                    -3.03302  -1.01153   0.37078 
 1                    -1.31603  -1.89724  -1.12181 
 1                    -1.43724   2.06762  -0.60622 
 1                     0.36592  -0.12084   1.88897 
 1                     0.52638   2.08853   0.96474 
 1                     0.4723   -2.18941   0.63073 
 1                     2.17354  -1.15688  -0.73301 
 1                     2.49533  -0.70881   1.7471 
 1                     1.16348   0.85381  -1.48256 
 
                          Input orientation:                          
 ---------------------------------------------------------------------
 Center     Atomic      Atomic             Coordinates (Angstroms)
 Number     Number       Type             X           Y           Z
 ---------------------------------------------------------------------
      1          6           0       -2.005090   -0.774970    0.664252
      2          6           0       -1.015308   -1.074354   -0.471232
      3          6           0       -1.042220    1.129058   -0.209923
      4          6           0        0.851773   -0.057496    0.909381
      5          6           0        0.426568    1.268291    0.247335
      6          6           0        0.420779   -1.262408    0.037773
      7          8           0       -1.096861    0.145896   -1.229032
      8          8           0       -1.874340    0.650960    0.846670
      9          8           0        1.286293   -1.350576   -1.093399
     10          8           0        2.273718   -0.060233    1.058562
     11          8           0        1.228729    1.613214   -0.873550
     12          1           0       -1.769983   -1.288071    1.601766
     13          1           0       -3.033018   -1.011533    0.370775
     14          1           0       -1.316025   -1.897237   -1.121809
     15          1           0       -1.437238    2.067618   -0.606218
     16          1           0        0.365921   -0.120837    1.888972
     17          1           0        0.526375    2.088534    0.964743
     18          1           0        0.472296   -2.189406    0.630729
     19          1           0        2.173542   -1.156883   -0.733011
     20          1           0        2.495325   -0.708813    1.747097
     21          1           0        1.163480    0.853812   -1.482555
 ---------------------------------------------------------------------
                    Distance matrix (angstroms):
                    1          2          3          4          5
     1  C    0.000000
     2  C    1.535781   0.000000
     3  C    2.305780   2.219016   0.000000
     4  C    2.955761   2.534972   2.499592   0.000000
     5  C    3.203388   2.843120   1.544606   1.541692   0.000000
     6  C    2.552433   1.535186   2.814397   1.548312   2.539367
     7  O    2.292902   1.438722   1.417101   2.900233   2.400055
     8  O    1.443485   2.334847   1.427372   2.817363   2.456517
     9  O    3.775429   2.400158   3.514411   2.423219   3.065152
    10  O    4.355976   3.766484   3.744184   1.429752   2.415580
    11  O    4.304166   3.524285   2.414957   2.472289   1.420851
    12  H    1.094294   2.216423   3.107148   2.977804   3.632397
    13  H    1.094864   2.187253   2.980372   4.036321   4.145066
    14  H    2.219078   1.091246   3.172533   3.494242   3.864163
    15  H    3.164942   3.173048   1.092696   3.471703   2.200284
    16  H    2.747639   2.896127   2.819656   1.095291   2.151355
    17  H    3.833832   3.800351   2.181954   2.171265   1.094273
    18  H    2.852927   2.161163   3.743348   2.183275   3.479188
    19  H    4.422575   3.200641   3.979984   2.377641   3.145547
    20  H    4.629327   4.168831   4.440937   1.956335   3.230787
    21  H    4.159513   3.080214   2.561340   2.578566   1.925448
                    6          7          8          9         10
     6  C    0.000000
     7  O    2.427210   0.000000
     8  O    3.095620   2.273346   0.000000
     9  O    1.427038   2.817312   4.214216   0.000000
    10  O    2.433232   4.078772   4.213915   2.696466   0.000000
    11  O    3.122898   2.772681   3.676157   2.972490   2.761428
    12  H    2.691871   3.243882   2.083483   4.075370   4.260772
    13  H    3.478871   2.765453   2.081560   4.573314   5.435023
    14  H    2.182688   2.057650   3.268017   2.659268   4.584196
    15  H    3.867302   2.048602   2.075780   4.397615   4.590255
    16  H    2.175576   3.454392   2.588597   3.354680   2.081572
    17  H    3.478396   3.349834   2.800713   4.079326   2.771139
    18  H    1.101624   3.372625   3.690665   2.082989   2.821620
    19  H    1.917660   3.555110   4.706276   0.977040   2.102953
    20  H    2.744448   4.742539   4.664089   3.153099   0.971517
    21  H    2.709500   2.382134   3.833378   2.241841   2.919826
                   11         12         13         14         15
    11  O    0.000000
    12  H    4.851486   0.000000
    13  H    5.157531   1.785237   0.000000
    14  H    4.342887   2.827547   2.441381   0.000000
    15  H    2.717596   4.030702   3.603082   4.000075   0.000000
    16  H    3.373855   2.450920   3.827669   3.879348   3.777127
    17  H    2.024488   4.132859   4.757362   4.861533   2.514783
    18  H    4.158722   2.604445   3.707046   2.520882   4.826864
    19  H    2.930164   4.584734   5.324259   3.588365   4.842645
    20  H    3.723421   4.306915   5.705127   4.916235   5.358331
    21  H    0.975621   4.765071   4.952266   3.721069   3.000837
                   16         17         18         19         20
    16  H    0.000000
    17  H    2.400264   0.000000
    18  H    2.423524   4.291301   0.000000
    19  H    3.348982   4.016000   2.412494   0.000000
    20  H    2.213641   3.509130   2.744281   2.540718   0.000000
    21  H    3.599060   2.814198   3.768936   2.371695   3.827043
                   21
    21  H    0.000000
 Stoichiometry    C6H10O5
 Framework group  C1[X(C6H10O5)]
 Deg. of freedom    57
 Full point group                 C1      NOp   1
 Largest Abelian subgroup         C1      NOp   1
 Largest concise Abelian subgroup C1      NOp   1
                         Standard orientation:                         
 ---------------------------------------------------------------------
 Center     Atomic      Atomic             Coordinates (Angstroms)
 Number     Number       Type             X           Y           Z
 ---------------------------------------------------------------------
      1          6           0       -2.005090   -0.774971    0.664252
      2          6           0       -1.015308   -1.074354   -0.471232
      3          6           0       -1.042220    1.129058   -0.209923
      4          6           0        0.851773   -0.057496    0.909381
      5          6           0        0.426568    1.268291    0.247335
      6          6           0        0.420779   -1.262408    0.037773
      7          8           0       -1.096861    0.145896   -1.229032
      8          8           0       -1.874340    0.650959    0.846670
      9          8           0        1.286293   -1.350576   -1.093399
     10          8           0        2.273718   -0.060232    1.058562
     11          8           0        1.228729    1.613214   -0.873550
     12          1           0       -1.769983   -1.288071    1.601766
     13          1           0       -3.033018   -1.011534    0.370775
     14          1           0       -1.316024   -1.897237   -1.121809
     15          1           0       -1.437239    2.067618   -0.606218
     16          1           0        0.365921   -0.120837    1.888972
     17          1           0        0.526374    2.088534    0.964743
     18          1           0        0.472297   -2.189406    0.630729
     19          1           0        2.173542   -1.156882   -0.733011
     20          1           0        2.495325   -0.708812    1.747097
     21          1           0        1.163480    0.853812   -1.482555
 ---------------------------------------------------------------------
 Rotational constants (GHZ):      1.7172913      1.1390652      1.0106586
 Standard basis: 6-31+G(d,p) (6D, 7F)
 There are   259 symmetry adapted basis functions of A   symmetry.
 Integral buffers will be    131072 words long.
 Raffenetti 2 integral format.
 Two-electron integral symmetry is turned on.
   259 basis functions,   422 primitive gaussians,   259 cartesian basis functions
    43 alpha electrons       43 beta electrons
       nuclear repulsion energy       736.4213077422 Hartrees.
 NAtoms=   21 NActive=   21 NUniq=   21 SFac= 1.00D+00 NAtFMM=   60 NAOKFM=F Big=F
 ------------------------------------------------------------------------------
 Polarizable Continuum Model (PCM)
 =================================
 Model                : C-PCM.
 Atomic radii         : SMD-Coulomb.
 Polarization charges : Total charges.
 Charge compensation  : None.
 Solution method      : Matrix inversion.
 Cavity type          : VdW (van der Waals Surface) (Alpha=1.000).
 Cavity algorithm     : GePol (No added spheres)
                        Default sphere list used, NSphG=   21.
                        Lebedev-Laikov grids with approx.  5.0 points / Ang**2.
                        Smoothing algorithm: Karplus/York (Gamma=1.0000).
                        Polarization charges: spherical gaussians, with
                                              point-specific exponents (IZeta= 3).
                        Self-potential: point-specific (ISelfS= 7).
                        Self-field    : sphere-specific E.n sum rule (ISelfD= 2).
 Solvent              : Water, Eps=  78.355300 Eps(inf)=   1.777849
 ------------------------------------------------------------------------------
 ------------------------------------------------------------------------------
 Atomic radii for non-electrostatic terms: SMD-CDS.
 ------------------------------------------------------------------------------
 Nuclear repulsion after PCM non-electrostatic terms =      736.4260811410 Hartrees.
 One-electron integrals computed using PRISM.
 NBasis=   259 RedAO= T  NBF=   259
 NBsUse=   259 1.00D-06 NBFU=   259
 Harris functional with IExCor=  402 diagonalized for initial guess.
 ExpMin= 4.38D-02 ExpMax= 5.48D+03 ExpMxC= 8.25D+02 IAcc=2 IRadAn=         4 AccDes= 0.00D+00
 HarFok:  IExCor=  402 AccDes= 0.00D+00 IRadAn=         4 IDoV= 1
 ScaDFX=  1.000000  1.000000  1.000000  1.000000
 FoFCou: FMM=F IPFlag=           0 FMFlag=      100000 FMFlg1=           0
         NFxFlg=           0 DoJE=T BraDBF=F KetDBF=T FulRan=T
         Omega=  0.000000  0.000000  1.000000  0.000000  0.000000 ICntrl=     500 IOpCl=  0
         NMat0=    1 NMatS0=    1 NMatT0=    0 NMatD0=    1 NMtDS0=    0 NMtDT0=    0
         I1Cent=           4 NGrid=           0.
 Petite list used in FoFCou.
 Initial guess orbital symmetries:
       Occupied  (A) (A) (A) (A) (A) (A) (A) (A) (A) (A) (A) (A)
                 (A) (A) (A) (A) (A) (A) (A) (A) (A) (A) (A) (A)
                 (A) (A) (A) (A) (A) (A) (A) (A) (A) (A) (A) (A)
                 (A) (A) (A) (A) (A) (A) (A)
       Virtual   (A) (A) (A) (A) (A) (A) (A) (A) (A) (A) (A) (A)
                 (A) (A) (A) (A) (A) (A) (A) (A) (A) (A) (A) (A)
                 (A) (A) (A) (A) (A) (A) (A) (A) (A) (A) (A) (A)
                 (A) (A) (A) (A) (A) (A) (A) (A) (A) (A) (A) (A)
                 (A) (A) (A) (A) (A) (A) (A) (A) (A) (A) (A) (A)
                 (A) (A) (A) (A) (A) (A) (A) (A) (A) (A) (A) (A)
                 (A) (A) (A) (A) (A) (A) (A) (A) (A) (A) (A) (A)
                 (A) (A) (A) (A) (A) (A) (A) (A) (A) (A) (A) (A)
                 (A) (A) (A) (A) (A) (A) (A) (A) (A) (A) (A) (A)
                 (A) (A) (A) (A) (A) (A) (A) (A) (A) (A) (A) (A)
                 (A) (A) (A) (A) (A) (A) (A) (A) (A) (A) (A) (A)
                 (A) (A) (A) (A) (A) (A) (A) (A) (A) (A) (A) (A)
                 (A) (A) (A) (A) (A) (A) (A) (A) (A) (A) (A) (A)
                 (A) (A) (A) (A) (A) (A) (A) (A) (A) (A) (A) (A)
                 (A) (A) (A) (A) (A) (A) (A) (A) (A) (A) (A) (A)
                 (A) (A) (A) (A) (A) (A) (A) (A) (A) (A) (A) (A)
                 (A) (A) (A) (A) (A) (A) (A) (A) (A) (A) (A) (A)
                 (A) (A) (A) (A) (A) (A) (A) (A) (A) (A) (A) (A)
 The electronic state of the initial guess is 1-A.
 Requested convergence on RMS density matrix=1.00D-08 within 128 cycles.
 Requested convergence on MAX density matrix=1.00D-06.
 Requested convergence on             energy=1.00D-06.
 No special actions if energy rises.
 Error on total polarization charges =  0.05683
 SCF Done:  E(RB3LYP) =  -610.809186967     A.U. after   12 cycles
             Convg  =    0.5032D-08             -V/T =  2.0090
 SMD-CDS (non-electrostatic) energy       (kcal/mol) =       3.00
 (included in total energy above)

 **********************************************************************

            Population analysis using the SCF density.

 **********************************************************************

 Orbital symmetries:
       Occupied  (A) (A) (A) (A) (A) (A) (A) (A) (A) (A) (A) (A)
                 (A) (A) (A) (A) (A) (A) (A) (A) (A) (A) (A) (A)
                 (A) (A) (A) (A) (A) (A) (A) (A) (A) (A) (A) (A)
                 (A) (A) (A) (A) (A) (A) (A)
       Virtual   (A) (A) (A) (A) (A) (A) (A) (A) (A) (A) (A) (A)
                 (A) (A) (A) (A) (A) (A) (A) (A) (A) (A) (A) (A)
                 (A) (A) (A) (A) (A) (A) (A) (A) (A) (A) (A) (A)
                 (A) (A) (A) (A) (A) (A) (A) (A) (A) (A) (A) (A)
                 (A) (A) (A) (A) (A) (A) (A) (A) (A) (A) (A) (A)
                 (A) (A) (A) (A) (A) (A) (A) (A) (A) (A) (A) (A)
                 (A) (A) (A) (A) (A) (A) (A) (A) (A) (A) (A) (A)
                 (A) (A) (A) (A) (A) (A) (A) (A) (A) (A) (A) (A)
                 (A) (A) (A) (A) (A) (A) (A) (A) (A) (A) (A) (A)
                 (A) (A) (A) (A) (A) (A) (A) (A) (A) (A) (A) (A)
                 (A) (A) (A) (A) (A) (A) (A) (A) (A) (A) (A) (A)
                 (A) (A) (A) (A) (A) (A) (A) (A) (A) (A) (A) (A)
                 (A) (A) (A) (A) (A) (A) (A) (A) (A) (A) (A) (A)
                 (A) (A) (A) (A) (A) (A) (A) (A) (A) (A) (A) (A)
                 (A) (A) (A) (A) (A) (A) (A) (A) (A) (A) (A) (A)
                 (A) (A) (A) (A) (A) (A) (A) (A) (A) (A) (A) (A)
                 (A) (A) (A) (A) (A) (A) (A) (A) (A) (A) (A) (A)
                 (A) (A) (A) (A) (A) (A) (A) (A) (A) (A) (A) (A)
 The electronic state is 1-A.
 Alpha  occ. eigenvalues --  -19.18455 -19.17756 -19.17531 -19.16889 -19.16799
 Alpha  occ. eigenvalues --  -10.29379 -10.25247 -10.24808 -10.24653 -10.24539
 Alpha  occ. eigenvalues --  -10.24204  -1.11408  -1.05795  -1.03341  -1.02622
 Alpha  occ. eigenvalues --   -1.01092  -0.79640  -0.78053  -0.67643  -0.65721
 Alpha  occ. eigenvalues --   -0.62863  -0.58303  -0.55601  -0.53232  -0.52752
 Alpha  occ. eigenvalues --   -0.50150  -0.48469  -0.46405  -0.45807  -0.45208
 Alpha  occ. eigenvalues --   -0.43448  -0.41503  -0.40230  -0.38607  -0.37986
 Alpha  occ. eigenvalues --   -0.36145  -0.35667  -0.34224  -0.31728  -0.31281
 Alpha  occ. eigenvalues --   -0.29116  -0.27752  -0.26366
 Alpha virt. eigenvalues --    0.00233   0.01480   0.02630   0.02923   0.04357
 Alpha virt. eigenvalues --    0.04777   0.05305   0.05650   0.05762   0.08221
 Alpha virt. eigenvalues --    0.08721   0.09655   0.10170   0.10473   0.11833
 Alpha virt. eigenvalues --    0.12544   0.13410   0.13576   0.13998   0.14675
 Alpha virt. eigenvalues --    0.15356   0.15740   0.16299   0.16476   0.17722
 Alpha virt. eigenvalues --    0.18180   0.18919   0.19641   0.19913   0.20512
 Alpha virt. eigenvalues --    0.21492   0.21833   0.21916   0.22545   0.23737
 Alpha virt. eigenvalues --    0.24151   0.24674   0.24736   0.26957   0.27247
 Alpha virt. eigenvalues --    0.27923   0.28322   0.28798   0.29749   0.30361
 Alpha virt. eigenvalues --    0.30702   0.31080   0.31574   0.32088   0.33667
 Alpha virt. eigenvalues --    0.33860   0.34312   0.34957   0.35767   0.35949
 Alpha virt. eigenvalues --    0.37016   0.37462   0.38141   0.39287   0.40924
 Alpha virt. eigenvalues --    0.42024   0.43137   0.44791   0.46211   0.46638
 Alpha virt. eigenvalues --    0.48914   0.63395   0.64942   0.67741   0.68266
 Alpha virt. eigenvalues --    0.68757   0.70066   0.73259   0.74444   0.76088
 Alpha virt. eigenvalues --    0.78693   0.79398   0.82064   0.82233   0.85802
 Alpha virt. eigenvalues --    0.87103   0.92566   0.94302   0.95305   0.99743
 Alpha virt. eigenvalues --    1.01635   1.02432   1.03862   1.06354   1.07037
 Alpha virt. eigenvalues --    1.07560   1.09083   1.10358   1.12416   1.13451
 Alpha virt. eigenvalues --    1.18657   1.19479   1.21616   1.25365   1.26168
 Alpha virt. eigenvalues --    1.28517   1.28622   1.29742   1.31458   1.32057
 Alpha virt. eigenvalues --    1.32735   1.35503   1.36896   1.39160   1.40320
 Alpha virt. eigenvalues --    1.43907   1.44639   1.46187   1.46960   1.49696
 Alpha virt. eigenvalues --    1.53930   1.55062   1.56741   1.57863   1.59077
 Alpha virt. eigenvalues --    1.61151   1.61580   1.65504   1.67735   1.68911
 Alpha virt. eigenvalues --    1.71162   1.72714   1.74857   1.75091   1.77764
 Alpha virt. eigenvalues --    1.79367   1.81199   1.83505   1.85077   1.88061
 Alpha virt. eigenvalues --    1.89135   1.92780   1.94021   1.96929   1.98107
 Alpha virt. eigenvalues --    2.00191   2.02759   2.05678   2.07431   2.08116
 Alpha virt. eigenvalues --    2.09497   2.10865   2.13445   2.16874   2.17908
 Alpha virt. eigenvalues --    2.18863   2.20841   2.22209   2.24224   2.29935
 Alpha virt. eigenvalues --    2.32696   2.33638   2.35829   2.37930   2.41498
 Alpha virt. eigenvalues --    2.44688   2.48079   2.49010   2.49577   2.54158
 Alpha virt. eigenvalues --    2.55399   2.56673   2.58477   2.60798   2.63033
 Alpha virt. eigenvalues --    2.64981   2.66576   2.67879   2.68632   2.70885
 Alpha virt. eigenvalues --    2.72088   2.75191   2.77060   2.78091   2.79843
 Alpha virt. eigenvalues --    2.83355   2.85478   2.87058   2.88749   2.91263
 Alpha virt. eigenvalues --    2.92785   2.95567   2.97379   2.99335   3.00969
 Alpha virt. eigenvalues --    3.04009   3.07187   3.09502   3.13707   3.18937
 Alpha virt. eigenvalues --    3.34354   3.39013   3.44328   3.45441   3.48719
 Alpha virt. eigenvalues --    3.50422   3.52229   3.53415   3.57839   3.60824
 Alpha virt. eigenvalues --    4.25192   4.33805   4.42784   4.46045   4.49695
 Alpha virt. eigenvalues --    4.52892   4.61054   4.74477   4.81515   4.89107
 Alpha virt. eigenvalues --    5.05554
          Condensed to atoms (all electrons):
              1          2          3          4          5          6
     1  C    5.459788  -0.063262  -0.379606  -0.087558   0.184201  -0.008975
     2  C   -0.063262   6.819514  -0.782215   0.105227   0.352724  -0.744161
     3  C   -0.379606  -0.782215   6.985396   0.066783  -1.185252   0.658510
     4  C   -0.087558   0.105227   0.066783   6.222711  -0.264701  -0.223077
     5  C    0.184201   0.352724  -1.185252  -0.264701   6.965035  -0.654705
     6  C   -0.008975  -0.744161   0.658510  -0.223077  -0.654705   6.555435
     7  O   -0.033896   0.142183   0.228414  -0.072809  -0.080349  -0.070434
     8  O    0.157913  -0.114854   0.267020   0.016656  -0.152760  -0.005393
     9  O    0.050592  -0.145756  -0.092641  -0.082763   0.140796   0.134559
    10  O   -0.010317   0.019304   0.046956   0.226161  -0.130622  -0.085975
    11  O    0.000409  -0.019116  -0.100016  -0.084619   0.249507   0.000111
    12  H    0.456999  -0.148150   0.015935  -0.031763   0.007853   0.058827
    13  H    0.402906  -0.008692  -0.016209   0.005605   0.002975  -0.010417
    14  H   -0.002367   0.304962   0.034089   0.005945  -0.023130   0.022333
    15  H    0.015377   0.035997   0.345036   0.021711  -0.024052  -0.030554
    16  H    0.007576  -0.017789  -0.032053   0.324878   0.014840   0.000469
    17  H    0.009042  -0.027491   0.000057  -0.083707   0.376520   0.058148
    18  H    0.023950  -0.009413  -0.044621  -0.030545   0.063190   0.293403
    19  H   -0.004620   0.018380  -0.006046  -0.034015  -0.005350   0.020619
    20  H    0.000290   0.012295  -0.006176   0.021920   0.018141  -0.046251
    21  H    0.002499  -0.016886  -0.032217  -0.040976   0.040456   0.034920
              7          8          9         10         11         12
     1  C   -0.033896   0.157913   0.050592  -0.010317   0.000409   0.456999
     2  C    0.142183  -0.114854  -0.145756   0.019304  -0.019116  -0.148150
     3  C    0.228414   0.267020  -0.092641   0.046956  -0.100016   0.015935
     4  C   -0.072809   0.016656  -0.082763   0.226161  -0.084619  -0.031763
     5  C   -0.080349  -0.152760   0.140796  -0.130622   0.249507   0.007853
     6  C   -0.070434  -0.005393   0.134559  -0.085975   0.000111   0.058827
     7  O    8.409410  -0.037704   0.002675  -0.003218   0.005612   0.008841
     8  O   -0.037704   8.437501   0.001084  -0.002096   0.006435  -0.042667
     9  O    0.002675   0.001084   8.439548  -0.037921   0.009730   0.000215
    10  O   -0.003218  -0.002096  -0.037921   8.390388   0.012078  -0.000074
    11  O    0.005612   0.006435   0.009730   0.012078   8.284015   0.000017
    12  H    0.008841  -0.042667   0.000215  -0.000074   0.000017   0.531127
    13  H   -0.000354  -0.050259  -0.000247   0.000004   0.000087  -0.038833
    14  H   -0.037746   0.007671   0.000561  -0.000658   0.000231   0.002076
    15  H   -0.045584  -0.039233   0.000859  -0.000534   0.005824  -0.000256
    16  H   -0.001546   0.003896   0.007489  -0.030475   0.007193   0.000725
    17  H    0.008620   0.001449  -0.001888   0.002331  -0.054836   0.000009
    18  H    0.006825   0.000760  -0.033420  -0.005737  -0.000855   0.000472
    19  H   -0.001228   0.000184   0.236165   0.030444  -0.003253  -0.000006
    20  H    0.000039   0.000211   0.002560   0.249712  -0.000100  -0.000008
    21  H    0.015143   0.000120   0.009476  -0.003721   0.252806  -0.000002
             13         14         15         16         17         18
     1  C    0.402906  -0.002367   0.015377   0.007576   0.009042   0.023950
     2  C   -0.008692   0.304962   0.035997  -0.017789  -0.027491  -0.009413
     3  C   -0.016209   0.034089   0.345036  -0.032053   0.000057  -0.044621
     4  C    0.005605   0.005945   0.021711   0.324878  -0.083707  -0.030545
     5  C    0.002975  -0.023130  -0.024052   0.014840   0.376520   0.063190
     6  C   -0.010417   0.022333  -0.030554   0.000469   0.058148   0.293403
     7  O   -0.000354  -0.037746  -0.045584  -0.001546   0.008620   0.006825
     8  O   -0.050259   0.007671  -0.039233   0.003896   0.001449   0.000760
     9  O   -0.000247   0.000561   0.000859   0.007489  -0.001888  -0.033420
    10  O    0.000004  -0.000658  -0.000534  -0.030475   0.002331  -0.005737
    11  O    0.000087   0.000231   0.005824   0.007193  -0.054836  -0.000855
    12  H   -0.038833   0.002076  -0.000256   0.000725   0.000009   0.000472
    13  H    0.547245  -0.003580   0.000359   0.000028  -0.000002   0.000009
    14  H   -0.003580   0.515600  -0.000076  -0.000159   0.000022  -0.003259
    15  H    0.000359  -0.000076   0.548614  -0.000119  -0.003860   0.000024
    16  H    0.000028  -0.000159  -0.000119   0.540600  -0.005070  -0.003415
    17  H   -0.000002   0.000022  -0.003860  -0.005070   0.544859  -0.000161
    18  H    0.000009  -0.003259   0.000024  -0.003415  -0.000161   0.579222
    19  H    0.000004  -0.000015  -0.000002   0.000605  -0.000019  -0.003744
    20  H    0.000000   0.000000   0.000004  -0.008492  -0.000090   0.002326
    21  H    0.000001   0.000084  -0.000517  -0.000117   0.006151  -0.000028
             19         20         21
     1  C   -0.004620   0.000290   0.002499
     2  C    0.018380   0.012295  -0.016886
     3  C   -0.006046  -0.006176  -0.032217
     4  C   -0.034015   0.021920  -0.040976
     5  C   -0.005350   0.018141   0.040456
     6  C    0.020619  -0.046251   0.034920
     7  O   -0.001228   0.000039   0.015143
     8  O    0.000184   0.000211   0.000120
     9  O    0.236165   0.002560   0.009476
    10  O    0.030444   0.249712  -0.003721
    11  O   -0.003253  -0.000100   0.252806
    12  H   -0.000006  -0.000008  -0.000002
    13  H    0.000004   0.000000   0.000001
    14  H   -0.000015   0.000000   0.000084
    15  H   -0.000002   0.000004  -0.000517
    16  H    0.000605  -0.008492  -0.000117
    17  H   -0.000019  -0.000090   0.006151
    18  H   -0.003744   0.002326  -0.000028
    19  H    0.339208  -0.001781  -0.001593
    20  H   -0.001781   0.324438  -0.000021
    21  H   -0.001593  -0.000021   0.327303
 Mulliken atomic charges:
              1
     1  C   -0.180941
     2  C    0.287199
     3  C    0.028854
     4  C    0.018935
     5  C    0.104682
     6  C    0.042608
     7  O   -0.442894
     8  O   -0.455934
     9  O   -0.641676
    10  O   -0.666032
    11  O   -0.571263
    12  H    0.178664
    13  H    0.169370
    14  H    0.177419
    15  H    0.170981
    16  H    0.190936
    17  H    0.169914
    18  H    0.165018
    19  H    0.416062
    20  H    0.430981
    21  H    0.407118
 Sum of Mulliken atomic charges =   0.00000
 Mulliken charges with hydrogens summed into heavy atoms:
              1
     1  C    0.167092
     2  C    0.464618
     3  C    0.199835
     4  C    0.209872
     5  C    0.274596
     6  C    0.207626
     7  O   -0.442894
     8  O   -0.455934
     9  O   -0.225614
    10  O   -0.235051
    11  O   -0.164145
 Sum of Mulliken charges with hydrogens summed into heavy atoms =   0.00000
 Electronic spatial extent (au):  <R**2>=           1369.6389
 Charge=              0.0000 electrons
 Dipole moment (field-independent basis, Debye):
    X=             -1.0265    Y=             -4.9580    Z=              4.7469  Tot=              6.9403
 Quadrupole moment (field-independent basis, Debye-Ang):
   XX=            -67.4015   YY=            -63.8266   ZZ=            -65.5999
   XY=             -2.8187   XZ=              5.3060   YZ=             -4.7377
 Traceless Quadrupole moment (field-independent basis, Debye-Ang):
   XX=             -1.7921   YY=              1.7827   ZZ=              0.0094
   XY=             -2.8187   XZ=              5.3060   YZ=             -4.7377
 Octapole moment (field-independent basis, Debye-Ang**2):
  XXX=              7.1077  YYY=             -6.2831  ZZZ=             15.6865  XYY=            -12.4884
  XXY=            -30.7053  XXZ=              2.9360  XZZ=             14.7003  YZZ=             -6.3102
  YYZ=             12.0547  XYZ=             -2.4892
 Hexadecapole moment (field-independent basis, Debye-Ang**3):
 XXXX=           -823.4803 YYYY=           -510.8763 ZZZZ=           -338.3974 XXXY=            -30.7202
 XXXZ=             18.2961 YYYX=            -19.7735 YYYZ=              3.3764 ZZZX=             18.9471
 ZZZY=            -20.7539 XXYY=           -222.2381 XXZZ=           -185.4723 YYZZ=           -148.1314
 XXYZ=            -23.9785 YYXZ=             28.7614 ZZXY=             -2.0956
 N-N= 7.364260811410D+02 E-N=-2.902883271966D+03  KE= 6.053580241403D+02

 Test job not archived.
 1\1\GINC-COMPUTE-10-0\SP\RB3LYP\6-31+G(d,p)\C6H10O5\ASAROTTI.IQUIR\15-
 Apr-2019\0\\# B3LYP/6-31+G** test scrf=(pcm,solvent=water,smd,dovacuum
 )\\comment\\0,1\C,0,-2.00509,-0.77497,0.664252\C,0,-1.015308,-1.074354
 ,-0.471232\C,0,-1.04222,1.129058,-0.209923\C,0,0.851773,-0.057496,0.90
 9381\C,0,0.426568,1.268291,0.247335\C,0,0.420779,-1.262408,0.037773\O,
 0,-1.096861,0.145896,-1.229032\O,0,-1.87434,0.65096,0.84667\O,0,1.2862
 93,-1.350576,-1.093399\O,0,2.273718,-0.060233,1.058562\O,0,1.228729,1.
 613214,-0.87355\H,0,-1.769983,-1.288071,1.601766\H,0,-3.033018,-1.0115
 33,0.370775\H,0,-1.316025,-1.897237,-1.121809\H,0,-1.437238,2.067618,-
 0.606218\H,0,0.365921,-0.120837,1.888972\H,0,0.526375,2.088534,0.96474
 3\H,0,0.472296,-2.189406,0.630729\H,0,2.173542,-1.156883,-0.733011\H,0
 ,2.495325,-0.708813,1.747097\H,0,1.16348,0.853812,-1.482555\\Version=E
 M64L-G09RevC.01\State=1-A\HF=-610.809187\RMSD=5.032e-09\Dipole=-0.4038
 677,-1.9506087,1.8675803\Quadrupole=-1.332396,1.325399,0.006997,-2.095
 6075,3.9448479,-3.5223386\PG=C01 [X(C6H10O5)]\\@


 ACCORDING TO HEN3RY, LIFE IS MUCH LIKE A SEWER........
 YOU GET OUT OF IT JUST WHAT YOU PUT INTO IT...........
                         TOM LEHRER - (THE 3 IS SILENT)
 Job cpu time:  0 days  0 hours 13 minutes 12.2 seconds.
 File lengths (MBytes):  RWF=     55 Int=      0 D2E=      0 Chk=      4 Scr=      1
 Normal termination of Gaussian 09 at Mon Apr 15 18:26:00 2019.
