 Entering Gaussian System, Link 0=g09
 Input=/home/asarotti.iquir/SCF3/05_SSR_Levo13_OPTB_energy_b3lyp_smd.gjc
 Output=/home/asarotti.iquir/SCF3/05_SSR_Levo13_OPTB_energy_b3lyp_smd.log
 Initial command:
 /share/apps/Gaussian09/EM64T.SSE4.2-enabled/g09/l1.exe /tmp/Gau-8220.inp -scrdir=/tmp/
 Entering Link 1 = /share/apps/Gaussian09/EM64T.SSE4.2-enabled/g09/l1.exe PID=      8221.
  
 Copyright (c) 1988,1990,1992,1993,1995,1998,2003,2009,2011,
            Gaussian, Inc.  All Rights Reserved.
  
 This is part of the Gaussian(R) 09 program.  It is based on
 the Gaussian(R) 03 system (copyright 2003, Gaussian, Inc.),
 the Gaussian(R) 98 system (copyright 1998, Gaussian, Inc.),
 the Gaussian(R) 94 system (copyright 1995, Gaussian, Inc.),
 the Gaussian 92(TM) system (copyright 1992, Gaussian, Inc.),
 the Gaussian 90(TM) system (copyright 1990, Gaussian, Inc.),
 the Gaussian 88(TM) system (copyright 1988, Gaussian, Inc.),
 the Gaussian 86(TM) system (copyright 1986, Carnegie Mellon
 University), and the Gaussian 82(TM) system (copyright 1983,
 Carnegie Mellon University). Gaussian is a federally registered
 trademark of Gaussian, Inc.
  
 This software contains proprietary and confidential information,
 including trade secrets, belonging to Gaussian, Inc.
  
 This software is provided under written license and may be
 used, copied, transmitted, or stored only in accord with that
 written license.
  
 The following legend is applicable only to US Government
 contracts under FAR:
  
                    RESTRICTED RIGHTS LEGEND
  
 Use, reproduction and disclosure by the US Government is
 subject to restrictions as set forth in subparagraphs (a)
 and (c) of the Commercial Computer Software - Restricted
 Rights clause in FAR 52.227-19.
  
 Gaussian, Inc.
 340 Quinnipiac St., Bldg. 40, Wallingford CT 06492
  
  
 ---------------------------------------------------------------
 Warning -- This program may not be used in any manner that
 competes with the business of Gaussian, Inc. or will provide
 assistance to any competitor of Gaussian, Inc.  The licensee
 of this program is prohibited from giving any competitor of
 Gaussian, Inc. access to this program.  By using this program,
 the user acknowledges that Gaussian, Inc. is engaged in the
 business of creating and licensing software in the field of
 computational chemistry and represents and warrants to the
 licensee that it is not a competitor of Gaussian, Inc. and that
 it will not use this program in any manner prohibited above.
 ---------------------------------------------------------------
  

 Cite this work as:
 Gaussian 09, Revision C.01,
 M. J. Frisch, G. W. Trucks, H. B. Schlegel, G. E. Scuseria, 
 M. A. Robb, J. R. Cheeseman, G. Scalmani, V. Barone, B. Mennucci, 
 G. A. Petersson, H. Nakatsuji, M. Caricato, X. Li, H. P. Hratchian, 
 A. F. Izmaylov, J. Bloino, G. Zheng, J. L. Sonnenberg, M. Hada, 
 M. Ehara, K. Toyota, R. Fukuda, J. Hasegawa, M. Ishida, T. Nakajima, 
 Y. Honda, O. Kitao, H. Nakai, T. Vreven, J. A. Montgomery, Jr., 
 J. E. Peralta, F. Ogliaro, M. Bearpark, J. J. Heyd, E. Brothers, 
 K. N. Kudin, V. N. Staroverov, T. Keith, R. Kobayashi, J. Normand, 
 K. Raghavachari, A. Rendell, J. C. Burant, S. S. Iyengar, J. Tomasi, 
 M. Cossi, N. Rega, J. M. Millam, M. Klene, J. E. Knox, J. B. Cross, 
 V. Bakken, C. Adamo, J. Jaramillo, R. Gomperts, R. E. Stratmann, 
 O. Yazyev, A. J. Austin, R. Cammi, C. Pomelli, J. W. Ochterski, 
 R. L. Martin, K. Morokuma, V. G. Zakrzewski, G. A. Voth, 
 P. Salvador, J. J. Dannenberg, S. Dapprich, A. D. Daniels, 
 O. Farkas, J. B. Foresman, J. V. Ortiz, J. Cioslowski, 
 and D. J. Fox, Gaussian, Inc., Wallingford CT, 2010.
 
 ******************************************
 Gaussian 09:  EM64L-G09RevC.01 23-Sep-2011
                15-Apr-2019 
 ******************************************
 %nprocshared=4
 Will use up to    4 processors via shared memory.
 -----------------------------------------------------------
 # B3LYP/6-31+G** test scrf=(pcm,solvent=water,smd,dovacuum)
 -----------------------------------------------------------
 1/38=1/1;
 2/12=2,17=6,18=5,40=1/2;
 3/5=1,6=6,7=111,11=2,16=1,25=1,30=1,70=32101,72=1,74=-5/1,2,3;
 4//1;
 5/5=2,38=5,53=1/2;
 6/7=2,8=2,9=2,10=2,28=1/1;
 99/5=1,9=1/99;
 -------
 comment
 -------
 Charge =  0 Multiplicity = 1
 Symbolic Z-Matrix:
 6                    -1.65796   0.90468  -0.95691 
 6                    -0.56678   1.37595   0.02722 
 6                    -1.33492  -0.5637    0.76377 
 6                     1.16926  -0.38175   0.4507 
 6                    -0.018    -1.35722   0.46167 
 6                     0.85422   0.88289  -0.35179 
 8                    -0.9952    0.72777   1.24645 
 8                    -2.11307  -0.33807  -0.39563 
 8                     1.88841   1.81367  -0.02819 
 8                     2.28664  -1.08322  -0.08863 
 8                    -0.12411  -2.02519  -0.78634 
 1                    -1.27891   0.74494  -1.97122 
 1                    -2.50017   1.60324  -0.99301 
 1                    -0.57039   2.45348   0.19997 
 1                    -1.95395  -1.06512   1.50974 
 1                     1.37649  -0.06808   1.48141 
 1                     0.14218  -2.08537   1.27105 
 1                     0.89182   0.64246  -1.42187 
 1                     1.90956   2.49561  -0.71838 
 1                     2.97025  -0.41692  -0.27343 
 1                     0.79673  -2.22904  -1.03351 
 
                          Input orientation:                          
 ---------------------------------------------------------------------
 Center     Atomic      Atomic             Coordinates (Angstroms)
 Number     Number       Type             X           Y           Z
 ---------------------------------------------------------------------
      1          6           0       -1.657956    0.904680   -0.956909
      2          6           0       -0.566778    1.375951    0.027220
      3          6           0       -1.334916   -0.563701    0.763774
      4          6           0        1.169257   -0.381754    0.450699
      5          6           0       -0.017997   -1.357216    0.461671
      6          6           0        0.854224    0.882885   -0.351786
      7          8           0       -0.995195    0.727770    1.246446
      8          8           0       -2.113070   -0.338066   -0.395629
      9          8           0        1.888407    1.813672   -0.028193
     10          8           0        2.286641   -1.083215   -0.088631
     11          8           0       -0.124108   -2.025194   -0.786341
     12          1           0       -1.278913    0.744936   -1.971215
     13          1           0       -2.500171    1.603241   -0.993005
     14          1           0       -0.570390    2.453477    0.199974
     15          1           0       -1.953948   -1.065117    1.509738
     16          1           0        1.376485   -0.068076    1.481413
     17          1           0        0.142182   -2.085371    1.271046
     18          1           0        0.891818    0.642457   -1.421873
     19          1           0        1.909562    2.495609   -0.718375
     20          1           0        2.970254   -0.416916   -0.273426
     21          1           0        0.796726   -2.229043   -1.033513
 ---------------------------------------------------------------------
                    Distance matrix (angstroms):
                    1          2          3          4          5
     1  C    0.000000
     2  C    1.543138   0.000000
     3  C    2.285005   2.212419   0.000000
     4  C    3.410191   2.506527   2.530218   0.000000
     5  C    3.133370   2.821367   1.566910   1.536626   0.000000
     6  C    2.584124   1.551131   2.851214   1.530536   2.537821
     7  O    2.307666   1.445750   1.419958   2.559123   2.432685
     8  O    1.437561   2.346844   1.414443   3.389963   2.482531
     9  O    3.776966   2.494515   4.082760   2.359324   3.732141
    10  O    4.501720   3.768676   3.756616   1.425297   2.385218
    11  O    3.311487   3.525000   2.450485   2.429806   1.419503
    12  H    1.094536   2.213382   3.032463   3.623346   3.453677
    13  H    1.094813   2.197846   3.023199   4.414656   4.128144
    14  H    2.218096   1.091292   3.163184   3.335831   3.859405
    15  H    3.170498   3.175045   1.091367   3.367931   2.220737
    16  H    4.012418   2.824210   2.848218   1.097137   2.155536
    17  H    4.140614   3.745728   2.180510   2.151781   1.100434
    18  H    2.605053   2.182976   3.345178   2.152326   2.893820
    19  H    3.913456   2.818121   4.699232   3.192805   4.466794
    20  H    4.861491   3.976852   4.430781   1.941439   3.217791
    21  H    3.981401   3.997534   3.247692   2.398779   1.912964
                    6          7          8          9         10
     6  C    0.000000
     7  O    2.449236   0.000000
     8  O    3.208968   2.254343   0.000000
     9  O    1.428500   3.334524   4.558158   0.000000
    10  O    2.446757   3.979013   4.472913   2.924756   0.000000
    11  O    3.098854   3.531264   2.637238   4.400216   2.680641
    12  H    2.681763   3.230191   2.085949   3.866451   4.427125
    13  H    3.490278   2.836643   2.067699   4.498306   5.563138
    14  H    2.191055   2.062432   3.244583   2.550900   4.555668
    15  H    3.891762   2.050116   2.045567   5.041463   4.531855
    16  H    2.130188   2.512657   3.971546   2.466161   2.079406
    17  H    3.457041   3.034468   3.304095   4.465407   2.729788
    18  H    1.097408   3.269254   3.323244   2.075398   2.588631
    19  H    1.961888   3.927262   4.931070   0.970483   3.653320
    20  H    2.484594   4.398307   5.085404   2.491195   0.972332
    21  H    3.186244   4.141490   3.528399   4.306504   2.103704
                   11         12         13         14         15
    11  O    0.000000
    12  H    3.226627   0.000000
    13  H    4.342111   1.784672   0.000000
    14  H    4.607654   2.852223   2.422840   0.000000
    15  H    3.089019   3.981080   3.698948   4.001277   0.000000
    16  H    3.350343   4.430888   4.893312   3.433750   3.476590
    17  H    2.075421   4.532373   5.070879   4.717637   2.343428
    18  H    2.924443   2.241507   3.551425   2.836941   4.428153
    19  H    4.957630   3.847186   4.507492   2.644863   5.707010
    20  H    3.524871   4.720996   5.875745   4.582513   5.277083
    21  H    0.974979   3.745946   5.055450   5.031549   3.922889
                   16         17         18         19         20
    16  H    0.000000
    17  H    2.374287   0.000000
    18  H    3.028007   3.905741   0.000000
    19  H    3.419900   5.297811   2.228202   0.000000
    20  H    2.396090   3.628654   2.600211   3.131429   0.000000
    21  H    3.366118   2.400013   2.899203   4.864160   2.930147
                   21
    21  H    0.000000
 Stoichiometry    C6H10O5
 Framework group  C1[X(C6H10O5)]
 Deg. of freedom    57
 Full point group                 C1      NOp   1
 Largest Abelian subgroup         C1      NOp   1
 Largest concise Abelian subgroup C1      NOp   1
                         Standard orientation:                         
 ---------------------------------------------------------------------
 Center     Atomic      Atomic             Coordinates (Angstroms)
 Number     Number       Type             X           Y           Z
 ---------------------------------------------------------------------
      1          6           0        1.657956   -0.904680   -0.956909
      2          6           0        0.566778   -1.375951    0.027220
      3          6           0        1.334916    0.563701    0.763774
      4          6           0       -1.169257    0.381754    0.450699
      5          6           0        0.017997    1.357216    0.461671
      6          6           0       -0.854224   -0.882885   -0.351786
      7          8           0        0.995195   -0.727770    1.246446
      8          8           0        2.113070    0.338066   -0.395629
      9          8           0       -1.888407   -1.813672   -0.028193
     10          8           0       -2.286641    1.083215   -0.088631
     11          8           0        0.124108    2.025194   -0.786341
     12          1           0        1.278913   -0.744936   -1.971215
     13          1           0        2.500171   -1.603241   -0.993005
     14          1           0        0.570390   -2.453477    0.199974
     15          1           0        1.953948    1.065117    1.509738
     16          1           0       -1.376485    0.068076    1.481413
     17          1           0       -0.142182    2.085371    1.271046
     18          1           0       -0.891818   -0.642457   -1.421873
     19          1           0       -1.909562   -2.495609   -0.718375
     20          1           0       -2.970254    0.416916   -0.273426
     21          1           0       -0.796726    2.229043   -1.033513
 ---------------------------------------------------------------------
 Rotational constants (GHZ):      1.5792198      1.2148760      0.8663255
 Standard basis: 6-31+G(d,p) (6D, 7F)
 There are   259 symmetry adapted basis functions of A   symmetry.
 Integral buffers will be    131072 words long.
 Raffenetti 2 integral format.
 Two-electron integral symmetry is turned on.
   259 basis functions,   422 primitive gaussians,   259 cartesian basis functions
    43 alpha electrons       43 beta electrons
       nuclear repulsion energy       725.5953440189 Hartrees.
 NAtoms=   21 NActive=   21 NUniq=   21 SFac= 1.00D+00 NAtFMM=   60 NAOKFM=F Big=F
 ------------------------------------------------------------------------------
 Polarizable Continuum Model (PCM)
 =================================
 Model                : C-PCM.
 Atomic radii         : SMD-Coulomb.
 Polarization charges : Total charges.
 Charge compensation  : None.
 Solution method      : Matrix inversion.
 Cavity type          : VdW (van der Waals Surface) (Alpha=1.000).
 Cavity algorithm     : GePol (No added spheres)
                        Default sphere list used, NSphG=   21.
                        Lebedev-Laikov grids with approx.  5.0 points / Ang**2.
                        Smoothing algorithm: Karplus/York (Gamma=1.0000).
                        Polarization charges: spherical gaussians, with
                                              point-specific exponents (IZeta= 3).
                        Self-potential: point-specific (ISelfS= 7).
                        Self-field    : sphere-specific E.n sum rule (ISelfD= 2).
 Solvent              : Water, Eps=  78.355300 Eps(inf)=   1.777849
 ------------------------------------------------------------------------------
 ------------------------------------------------------------------------------
 Atomic radii for non-electrostatic terms: SMD-CDS.
 ------------------------------------------------------------------------------
 Nuclear repulsion after PCM non-electrostatic terms =      725.6006169743 Hartrees.
 One-electron integrals computed using PRISM.
 NBasis=   259 RedAO= T  NBF=   259
 NBsUse=   259 1.00D-06 NBFU=   259
 Harris functional with IExCor=  402 diagonalized for initial guess.
 ExpMin= 4.38D-02 ExpMax= 5.48D+03 ExpMxC= 8.25D+02 IAcc=2 IRadAn=         4 AccDes= 0.00D+00
 HarFok:  IExCor=  402 AccDes= 0.00D+00 IRadAn=         4 IDoV= 1
 ScaDFX=  1.000000  1.000000  1.000000  1.000000
 FoFCou: FMM=F IPFlag=           0 FMFlag=      100000 FMFlg1=           0
         NFxFlg=           0 DoJE=T BraDBF=F KetDBF=T FulRan=T
         Omega=  0.000000  0.000000  1.000000  0.000000  0.000000 ICntrl=     500 IOpCl=  0
         NMat0=    1 NMatS0=    1 NMatT0=    0 NMatD0=    1 NMtDS0=    0 NMtDT0=    0
         I1Cent=           4 NGrid=           0.
 Petite list used in FoFCou.
 Initial guess orbital symmetries:
       Occupied  (A) (A) (A) (A) (A) (A) (A) (A) (A) (A) (A) (A)
                 (A) (A) (A) (A) (A) (A) (A) (A) (A) (A) (A) (A)
                 (A) (A) (A) (A) (A) (A) (A) (A) (A) (A) (A) (A)
                 (A) (A) (A) (A) (A) (A) (A)
       Virtual   (A) (A) (A) (A) (A) (A) (A) (A) (A) (A) (A) (A)
                 (A) (A) (A) (A) (A) (A) (A) (A) (A) (A) (A) (A)
                 (A) (A) (A) (A) (A) (A) (A) (A) (A) (A) (A) (A)
                 (A) (A) (A) (A) (A) (A) (A) (A) (A) (A) (A) (A)
                 (A) (A) (A) (A) (A) (A) (A) (A) (A) (A) (A) (A)
                 (A) (A) (A) (A) (A) (A) (A) (A) (A) (A) (A) (A)
                 (A) (A) (A) (A) (A) (A) (A) (A) (A) (A) (A) (A)
                 (A) (A) (A) (A) (A) (A) (A) (A) (A) (A) (A) (A)
                 (A) (A) (A) (A) (A) (A) (A) (A) (A) (A) (A) (A)
                 (A) (A) (A) (A) (A) (A) (A) (A) (A) (A) (A) (A)
                 (A) (A) (A) (A) (A) (A) (A) (A) (A) (A) (A) (A)
                 (A) (A) (A) (A) (A) (A) (A) (A) (A) (A) (A) (A)
                 (A) (A) (A) (A) (A) (A) (A) (A) (A) (A) (A) (A)
                 (A) (A) (A) (A) (A) (A) (A) (A) (A) (A) (A) (A)
                 (A) (A) (A) (A) (A) (A) (A) (A) (A) (A) (A) (A)
                 (A) (A) (A) (A) (A) (A) (A) (A) (A) (A) (A) (A)
                 (A) (A) (A) (A) (A) (A) (A) (A) (A) (A) (A) (A)
                 (A) (A) (A) (A) (A) (A) (A) (A) (A) (A) (A) (A)
 The electronic state of the initial guess is 1-A.
 Requested convergence on RMS density matrix=1.00D-08 within 128 cycles.
 Requested convergence on MAX density matrix=1.00D-06.
 Requested convergence on             energy=1.00D-06.
 No special actions if energy rises.
 Error on total polarization charges =  0.05728
 SCF Done:  E(RB3LYP) =  -610.800453376     A.U. after   12 cycles
             Convg  =    0.4094D-08             -V/T =  2.0090
 SMD-CDS (non-electrostatic) energy       (kcal/mol) =       3.31
 (included in total energy above)

 **********************************************************************

            Population analysis using the SCF density.

 **********************************************************************

 Orbital symmetries:
       Occupied  (A) (A) (A) (A) (A) (A) (A) (A) (A) (A) (A) (A)
                 (A) (A) (A) (A) (A) (A) (A) (A) (A) (A) (A) (A)
                 (A) (A) (A) (A) (A) (A) (A) (A) (A) (A) (A) (A)
                 (A) (A) (A) (A) (A) (A) (A)
       Virtual   (A) (A) (A) (A) (A) (A) (A) (A) (A) (A) (A) (A)
                 (A) (A) (A) (A) (A) (A) (A) (A) (A) (A) (A) (A)
                 (A) (A) (A) (A) (A) (A) (A) (A) (A) (A) (A) (A)
                 (A) (A) (A) (A) (A) (A) (A) (A) (A) (A) (A) (A)
                 (A) (A) (A) (A) (A) (A) (A) (A) (A) (A) (A) (A)
                 (A) (A) (A) (A) (A) (A) (A) (A) (A) (A) (A) (A)
                 (A) (A) (A) (A) (A) (A) (A) (A) (A) (A) (A) (A)
                 (A) (A) (A) (A) (A) (A) (A) (A) (A) (A) (A) (A)
                 (A) (A) (A) (A) (A) (A) (A) (A) (A) (A) (A) (A)
                 (A) (A) (A) (A) (A) (A) (A) (A) (A) (A) (A) (A)
                 (A) (A) (A) (A) (A) (A) (A) (A) (A) (A) (A) (A)
                 (A) (A) (A) (A) (A) (A) (A) (A) (A) (A) (A) (A)
                 (A) (A) (A) (A) (A) (A) (A) (A) (A) (A) (A) (A)
                 (A) (A) (A) (A) (A) (A) (A) (A) (A) (A) (A) (A)
                 (A) (A) (A) (A) (A) (A) (A) (A) (A) (A) (A) (A)
                 (A) (A) (A) (A) (A) (A) (A) (A) (A) (A) (A) (A)
                 (A) (A) (A) (A) (A) (A) (A) (A) (A) (A) (A) (A)
                 (A) (A) (A) (A) (A) (A) (A) (A) (A) (A) (A) (A)
 The electronic state is 1-A.
 Alpha  occ. eigenvalues --  -19.18257 -19.17535 -19.17320 -19.17123 -19.16704
 Alpha  occ. eigenvalues --  -10.29586 -10.25027 -10.24649 -10.24591 -10.24488
 Alpha  occ. eigenvalues --  -10.23898  -1.11219  -1.05563  -1.03794  -1.02214
 Alpha  occ. eigenvalues --   -1.01162  -0.79137  -0.77992  -0.67976  -0.65922
 Alpha  occ. eigenvalues --   -0.62102  -0.57787  -0.55337  -0.53842  -0.52393
 Alpha  occ. eigenvalues --   -0.50335  -0.48358  -0.46791  -0.45881  -0.44402
 Alpha  occ. eigenvalues --   -0.43087  -0.42402  -0.39506  -0.38665  -0.37170
 Alpha  occ. eigenvalues --   -0.36064  -0.35333  -0.34316  -0.31790  -0.30089
 Alpha  occ. eigenvalues --   -0.28800  -0.27643  -0.26905
 Alpha virt. eigenvalues --    0.00623   0.01273   0.01901   0.02795   0.04171
 Alpha virt. eigenvalues --    0.04661   0.04949   0.05482   0.06094   0.08239
 Alpha virt. eigenvalues --    0.08801   0.09553   0.09980   0.10455   0.11645
 Alpha virt. eigenvalues --    0.12440   0.12783   0.13419   0.13699   0.14253
 Alpha virt. eigenvalues --    0.15593   0.15750   0.15991   0.16329   0.17016
 Alpha virt. eigenvalues --    0.18160   0.18574   0.18965   0.21252   0.21555
 Alpha virt. eigenvalues --    0.21698   0.21832   0.22574   0.23752   0.23887
 Alpha virt. eigenvalues --    0.24863   0.25071   0.25676   0.26239   0.26755
 Alpha virt. eigenvalues --    0.28163   0.28438   0.29303   0.29434   0.29976
 Alpha virt. eigenvalues --    0.30814   0.31517   0.31644   0.32123   0.33298
 Alpha virt. eigenvalues --    0.34082   0.35156   0.35439   0.36043   0.36630
 Alpha virt. eigenvalues --    0.36739   0.38104   0.38995   0.39255   0.40285
 Alpha virt. eigenvalues --    0.40711   0.41683   0.42959   0.43980   0.44635
 Alpha virt. eigenvalues --    0.46874   0.62406   0.66825   0.68075   0.68909
 Alpha virt. eigenvalues --    0.70780   0.73726   0.74401   0.77045   0.78257
 Alpha virt. eigenvalues --    0.78933   0.79361   0.80395   0.82468   0.84594
 Alpha virt. eigenvalues --    0.86074   0.90022   0.93157   0.93825   0.97271
 Alpha virt. eigenvalues --    0.99886   1.00215   1.03201   1.04936   1.05308
 Alpha virt. eigenvalues --    1.06380   1.07792   1.08480   1.11089   1.13801
 Alpha virt. eigenvalues --    1.18272   1.21225   1.23298   1.25308   1.27566
 Alpha virt. eigenvalues --    1.28040   1.28940   1.30232   1.32226   1.33041
 Alpha virt. eigenvalues --    1.34349   1.35493   1.36326   1.38057   1.40174
 Alpha virt. eigenvalues --    1.40590   1.43926   1.46439   1.48573   1.50079
 Alpha virt. eigenvalues --    1.50750   1.53792   1.56994   1.58245   1.60758
 Alpha virt. eigenvalues --    1.62453   1.62612   1.65027   1.66226   1.68446
 Alpha virt. eigenvalues --    1.71319   1.73511   1.74327   1.77187   1.77677
 Alpha virt. eigenvalues --    1.80915   1.83287   1.84148   1.85060   1.86074
 Alpha virt. eigenvalues --    1.86870   1.92260   1.93834   1.96003   1.96807
 Alpha virt. eigenvalues --    1.98691   2.01470   2.02250   2.04937   2.08389
 Alpha virt. eigenvalues --    2.10195   2.10978   2.13369   2.15148   2.16129
 Alpha virt. eigenvalues --    2.20470   2.21870   2.23880   2.25164   2.28637
 Alpha virt. eigenvalues --    2.33222   2.36129   2.36813   2.42532   2.43232
 Alpha virt. eigenvalues --    2.44815   2.48384   2.49187   2.49977   2.52495
 Alpha virt. eigenvalues --    2.53392   2.58000   2.59441   2.61264   2.63398
 Alpha virt. eigenvalues --    2.65253   2.66298   2.67380   2.69672   2.71176
 Alpha virt. eigenvalues --    2.71391   2.73129   2.74195   2.76974   2.79794
 Alpha virt. eigenvalues --    2.81973   2.84668   2.87408   2.89168   2.90741
 Alpha virt. eigenvalues --    2.93191   2.95786   2.97350   2.99798   3.03067
 Alpha virt. eigenvalues --    3.04458   3.06817   3.10673   3.20200   3.26646
 Alpha virt. eigenvalues --    3.34088   3.39195   3.40926   3.43624   3.49253
 Alpha virt. eigenvalues --    3.51156   3.51637   3.52964   3.57229   3.58139
 Alpha virt. eigenvalues --    4.22381   4.32568   4.37892   4.49040   4.56772
 Alpha virt. eigenvalues --    4.57554   4.60047   4.72970   4.76955   4.94612
 Alpha virt. eigenvalues --    5.09783
          Condensed to atoms (all electrons):
              1          2          3          4          5          6
     1  C    5.398269   0.070817  -0.208216   0.076938  -0.012939  -0.206476
     2  C    0.070817   6.441118  -0.635839  -0.099686   0.330494  -0.420019
     3  C   -0.208216  -0.635839   6.103332  -0.337664  -0.132113   0.388724
     4  C    0.076938  -0.099686  -0.337664   5.841787   0.216974  -0.034508
     5  C   -0.012939   0.330494  -0.132113   0.216974   5.914207  -0.603420
     6  C   -0.206476  -0.420019   0.388724  -0.034508  -0.603420   6.479093
     7  O   -0.050052   0.106044   0.256653  -0.003349  -0.191727  -0.084850
     8  O    0.158079  -0.129106   0.327161   0.045373  -0.193652   0.031722
     9  O    0.012545  -0.097480  -0.014864  -0.077604   0.054462   0.188533
    10  O    0.002263  -0.000769   0.051447   0.188291  -0.124455  -0.060293
    11  O    0.037909  -0.052704  -0.157962  -0.066528   0.167953   0.066101
    12  H    0.462813  -0.135822   0.020128   0.013324   0.000647  -0.006392
    13  H    0.413697  -0.010642  -0.017686   0.003239  -0.003028  -0.003453
    14  H    0.007423   0.334180   0.022986   0.004567  -0.007651  -0.028393
    15  H    0.015161   0.014368   0.373831   0.007388  -0.037587   0.003435
    16  H    0.003741   0.007552  -0.025566   0.335677   0.002269  -0.035588
    17  H   -0.000006  -0.020579  -0.026988   0.010846   0.294526   0.046527
    18  H    0.025333  -0.102206   0.007048  -0.113733   0.007604   0.461334
    19  H   -0.000805  -0.039524   0.002164   0.012852  -0.009434   0.042930
    20  H    0.000148   0.015715  -0.010615   0.033876   0.030961  -0.068101
    21  H   -0.004919   0.001076   0.034329  -0.053651   0.025879  -0.013258
              7          8          9         10         11         12
     1  C   -0.050052   0.158079   0.012545   0.002263   0.037909   0.462813
     2  C    0.106044  -0.129106  -0.097480  -0.000769  -0.052704  -0.135822
     3  C    0.256653   0.327161  -0.014864   0.051447  -0.157962   0.020128
     4  C   -0.003349   0.045373  -0.077604   0.188291  -0.066528   0.013324
     5  C   -0.191727  -0.193652   0.054462  -0.124455   0.167953   0.000647
     6  C   -0.084850   0.031722   0.188533  -0.060293   0.066101  -0.006392
     7  O    8.455262  -0.065654   0.011288   0.000813   0.026187   0.010860
     8  O   -0.065654   8.413902  -0.000671  -0.004224  -0.008589  -0.046925
     9  O    0.011288  -0.000671   8.370263  -0.016495  -0.003193   0.000785
    10  O    0.000813  -0.004224  -0.016495   8.394058  -0.013718   0.000135
    11  O    0.026187  -0.008589  -0.003193  -0.013718   8.410027   0.001486
    12  H    0.010860  -0.046925   0.000785   0.000135   0.001486   0.548925
    13  H    0.000266  -0.052740  -0.000165   0.000004   0.000440  -0.041022
    14  H   -0.028751   0.006565  -0.002078  -0.000178   0.000501   0.002647
    15  H   -0.044065  -0.048985   0.000126  -0.000509   0.005368  -0.000293
    16  H    0.010194  -0.002116   0.001002  -0.041341   0.006546   0.000002
    17  H    0.007214   0.003081  -0.000804   0.002180  -0.041180  -0.000008
    18  H    0.012827  -0.002991  -0.046752   0.005251   0.007416   0.003066
    19  H   -0.000334   0.000094   0.243273   0.000309   0.000272   0.000020
    20  H   -0.000080   0.000078   0.015749   0.237026  -0.000918  -0.000002
    21  H   -0.001063  -0.000347   0.000064   0.024663   0.234039  -0.000059
             13         14         15         16         17         18
     1  C    0.413697   0.007423   0.015161   0.003741  -0.000006   0.025333
     2  C   -0.010642   0.334180   0.014368   0.007552  -0.020579  -0.102206
     3  C   -0.017686   0.022986   0.373831  -0.025566  -0.026988   0.007048
     4  C    0.003239   0.004567   0.007388   0.335677   0.010846  -0.113733
     5  C   -0.003028  -0.007651  -0.037587   0.002269   0.294526   0.007604
     6  C   -0.003453  -0.028393   0.003435  -0.035588   0.046527   0.461334
     7  O    0.000266  -0.028751  -0.044065   0.010194   0.007214   0.012827
     8  O   -0.052740   0.006565  -0.048985  -0.002116   0.003081  -0.002991
     9  O   -0.000165  -0.002078   0.000126   0.001002  -0.000804  -0.046752
    10  O    0.000004  -0.000178  -0.000509  -0.041341   0.002180   0.005251
    11  O    0.000440   0.000501   0.005368   0.006546  -0.041180   0.007416
    12  H   -0.041022   0.002647  -0.000293   0.000002  -0.000008   0.003066
    13  H    0.548939  -0.004698   0.000195   0.000004   0.000009   0.000231
    14  H   -0.004698   0.509818  -0.000097  -0.000199   0.000010   0.002033
    15  H    0.000195  -0.000097   0.543348   0.000016  -0.005792   0.000027
    16  H    0.000004  -0.000199   0.000016   0.568169  -0.005271   0.004718
    17  H    0.000009   0.000010  -0.005792  -0.005271   0.582422  -0.000111
    18  H    0.000231   0.002033   0.000027   0.004718  -0.000111   0.558087
    19  H   -0.000015   0.001238   0.000000   0.000237   0.000005  -0.006261
    20  H    0.000000  -0.000010   0.000004  -0.004089  -0.000169  -0.001522
    21  H    0.000002  -0.000007  -0.000220   0.000672  -0.003246  -0.000141
             19         20         21
     1  C   -0.000805   0.000148  -0.004919
     2  C   -0.039524   0.015715   0.001076
     3  C    0.002164  -0.010615   0.034329
     4  C    0.012852   0.033876  -0.053651
     5  C   -0.009434   0.030961   0.025879
     6  C    0.042930  -0.068101  -0.013258
     7  O   -0.000334  -0.000080  -0.001063
     8  O    0.000094   0.000078  -0.000347
     9  O    0.243273   0.015749   0.000064
    10  O    0.000309   0.237026   0.024663
    11  O    0.000272  -0.000918   0.234039
    12  H    0.000020  -0.000002  -0.000059
    13  H   -0.000015   0.000000   0.000002
    14  H    0.001238  -0.000010  -0.000007
    15  H    0.000000   0.000004  -0.000220
    16  H    0.000237  -0.004089   0.000672
    17  H    0.000005  -0.000169  -0.003246
    18  H   -0.006261  -0.001522  -0.000141
    19  H    0.337784  -0.000961  -0.000002
    20  H   -0.000961   0.341503  -0.000738
    21  H   -0.000002  -0.000738   0.344499
 Mulliken atomic charges:
              1
     1  C   -0.201723
     2  C    0.423011
     3  C   -0.020290
     4  C   -0.004408
     5  C    0.270030
     6  C   -0.143647
     7  O   -0.427682
     8  O   -0.430055
     9  O   -0.637984
    10  O   -0.644458
    11  O   -0.619453
    12  H    0.165683
    13  H    0.166423
    14  H    0.180093
    15  H    0.174281
    16  H    0.173370
    17  H    0.157336
    18  H    0.178743
    19  H    0.416159
    20  H    0.412143
    21  H    0.412428
 Sum of Mulliken atomic charges =   0.00000
 Mulliken charges with hydrogens summed into heavy atoms:
              1
     1  C    0.130383
     2  C    0.603103
     3  C    0.153991
     4  C    0.168962
     5  C    0.427366
     6  C    0.035095
     7  O   -0.427682
     8  O   -0.430055
     9  O   -0.221824
    10  O   -0.232314
    11  O   -0.207025
 Sum of Mulliken charges with hydrogens summed into heavy atoms =   0.00000
 Electronic spatial extent (au):  <R**2>=           1445.1803
 Charge=              0.0000 electrons
 Dipole moment (field-independent basis, Debye):
    X=             -2.4752    Y=             -4.0556    Z=             -1.9340  Tot=              5.1298
 Quadrupole moment (field-independent basis, Debye-Ang):
   XX=            -68.9842   YY=            -62.2738   ZZ=            -63.5040
   XY=             -1.4942   XZ=              5.6650   YZ=             12.0173
 Traceless Quadrupole moment (field-independent basis, Debye-Ang):
   XX=             -4.0636   YY=              2.6469   ZZ=              1.4166
   XY=             -1.4942   XZ=              5.6650   YZ=             12.0173
 Octapole moment (field-independent basis, Debye-Ang**2):
  XXX=            -24.7395  YYY=            -29.4017  ZZZ=             -8.3020  XYY=             -4.0440
  XXY=            -11.8988  XXZ=             -8.2797  XZZ=             -6.3715  YZZ=              1.6250
  YYZ=             -8.5642  XYZ=              4.6471
 Hexadecapole moment (field-independent basis, Debye-Ang**3):
 XXXX=           -854.7140 YYYY=           -603.9334 ZZZZ=           -261.5119 XXXY=              3.6863
 XXXZ=             38.2503 YYYX=              9.4135 YYYZ=             33.3446 ZZZX=              4.3955
 ZZZY=             12.0941 XXYY=           -255.6441 XXZZ=           -179.7300 YYZZ=           -144.2938
 XXYZ=             26.5017 YYXZ=             33.1235 ZZXY=              5.8807
 N-N= 7.256006169743D+02 E-N=-2.881498718407D+03  KE= 6.053520879462D+02

 Test job not archived.
 1\1\GINC-COMPUTE-10-3\SP\RB3LYP\6-31+G(d,p)\C6H10O5\ASAROTTI.IQUIR\15-
 Apr-2019\0\\# B3LYP/6-31+G** test scrf=(pcm,solvent=water,smd,dovacuum
 )\\comment\\0,1\C,0,-1.657956,0.90468,-0.956909\C,0,-0.566778,1.375951
 ,0.02722\C,0,-1.334916,-0.563701,0.763774\C,0,1.169257,-0.381754,0.450
 699\C,0,-0.017997,-1.357216,0.461671\C,0,0.854224,0.882885,-0.351786\O
 ,0,-0.995195,0.72777,1.246446\O,0,-2.11307,-0.338066,-0.395629\O,0,1.8
 88407,1.813672,-0.028193\O,0,2.286641,-1.083215,-0.088631\O,0,-0.12410
 8,-2.025194,-0.786341\H,0,-1.278913,0.744936,-1.971215\H,0,-2.500171,1
 .603241,-0.993005\H,0,-0.57039,2.453477,0.199974\H,0,-1.953948,-1.0651
 17,1.509738\H,0,1.376485,-0.068076,1.481413\H,0,0.142182,-2.085371,1.2
 71046\H,0,0.891818,0.642457,-1.421873\H,0,1.909562,2.495609,-0.718375\
 H,0,2.970254,-0.416916,-0.273426\H,0,0.796726,-2.229043,-1.033513\\Ver
 sion=EM64L-G09RevC.01\State=1-A\HF=-610.8004534\RMSD=4.094e-09\Dipole=
 0.9738036,1.5955915,-0.76088\Quadrupole=-3.0211544,1.9679184,1.0532359
 ,-1.1109337,-4.2118203,-8.9345624\PG=C01 [X(C6H10O5)]\\@


 Not by the face shall a man be known, but by the mask.
                               -- Karen Blixen
 Job cpu time:  0 days  0 hours  8 minutes  7.5 seconds.
 File lengths (MBytes):  RWF=     56 Int=      0 D2E=      0 Chk=      4 Scr=      1
 Normal termination of Gaussian 09 at Mon Apr 15 18:36:46 2019.
