 Entering Gaussian System, Link 0=g09
 Input=/home/mmarcarino.iquir/NMR/05_SSR_Levo04_OPTB_nmr.gjc
 Output=/home/mmarcarino.iquir/NMR/05_SSR_Levo04_OPTB_nmr.log
 Initial command:
 /share/apps/Gaussian09/EM64T.SSE4.2-enabled/g09/l1.exe /tmp/Gau-1122.inp -scrdir=/tmp/
 Entering Link 1 = /share/apps/Gaussian09/EM64T.SSE4.2-enabled/g09/l1.exe PID=      1123.
  
 Copyright (c) 1988,1990,1992,1993,1995,1998,2003,2009,2011,
            Gaussian, Inc.  All Rights Reserved.
  
 This is part of the Gaussian(R) 09 program.  It is based on
 the Gaussian(R) 03 system (copyright 2003, Gaussian, Inc.),
 the Gaussian(R) 98 system (copyright 1998, Gaussian, Inc.),
 the Gaussian(R) 94 system (copyright 1995, Gaussian, Inc.),
 the Gaussian 92(TM) system (copyright 1992, Gaussian, Inc.),
 the Gaussian 90(TM) system (copyright 1990, Gaussian, Inc.),
 the Gaussian 88(TM) system (copyright 1988, Gaussian, Inc.),
 the Gaussian 86(TM) system (copyright 1986, Carnegie Mellon
 University), and the Gaussian 82(TM) system (copyright 1983,
 Carnegie Mellon University). Gaussian is a federally registered
 trademark of Gaussian, Inc.
  
 This software contains proprietary and confidential information,
 including trade secrets, belonging to Gaussian, Inc.
  
 This software is provided under written license and may be
 used, copied, transmitted, or stored only in accord with that
 written license.
  
 The following legend is applicable only to US Government
 contracts under FAR:
  
                    RESTRICTED RIGHTS LEGEND
  
 Use, reproduction and disclosure by the US Government is
 subject to restrictions as set forth in subparagraphs (a)
 and (c) of the Commercial Computer Software - Restricted
 Rights clause in FAR 52.227-19.
  
 Gaussian, Inc.
 340 Quinnipiac St., Bldg. 40, Wallingford CT 06492
  
  
 ---------------------------------------------------------------
 Warning -- This program may not be used in any manner that
 competes with the business of Gaussian, Inc. or will provide
 assistance to any competitor of Gaussian, Inc.  The licensee
 of this program is prohibited from giving any competitor of
 Gaussian, Inc. access to this program.  By using this program,
 the user acknowledges that Gaussian, Inc. is engaged in the
 business of creating and licensing software in the field of
 computational chemistry and represents and warrants to the
 licensee that it is not a competitor of Gaussian, Inc. and that
 it will not use this program in any manner prohibited above.
 ---------------------------------------------------------------
  

 Cite this work as:
 Gaussian 09, Revision C.01,
 M. J. Frisch, G. W. Trucks, H. B. Schlegel, G. E. Scuseria, 
 M. A. Robb, J. R. Cheeseman, G. Scalmani, V. Barone, B. Mennucci, 
 G. A. Petersson, H. Nakatsuji, M. Caricato, X. Li, H. P. Hratchian, 
 A. F. Izmaylov, J. Bloino, G. Zheng, J. L. Sonnenberg, M. Hada, 
 M. Ehara, K. Toyota, R. Fukuda, J. Hasegawa, M. Ishida, T. Nakajima, 
 Y. Honda, O. Kitao, H. Nakai, T. Vreven, J. A. Montgomery, Jr., 
 J. E. Peralta, F. Ogliaro, M. Bearpark, J. J. Heyd, E. Brothers, 
 K. N. Kudin, V. N. Staroverov, T. Keith, R. Kobayashi, J. Normand, 
 K. Raghavachari, A. Rendell, J. C. Burant, S. S. Iyengar, J. Tomasi, 
 M. Cossi, N. Rega, J. M. Millam, M. Klene, J. E. Knox, J. B. Cross, 
 V. Bakken, C. Adamo, J. Jaramillo, R. Gomperts, R. E. Stratmann, 
 O. Yazyev, A. J. Austin, R. Cammi, C. Pomelli, J. W. Ochterski, 
 R. L. Martin, K. Morokuma, V. G. Zakrzewski, G. A. Voth, 
 P. Salvador, J. J. Dannenberg, S. Dapprich, A. D. Daniels, 
 O. Farkas, J. B. Foresman, J. V. Ortiz, J. Cioslowski, 
 and D. J. Fox, Gaussian, Inc., Wallingford CT, 2010.
 
 ******************************************
 Gaussian 09:  EM64L-G09RevC.01 23-Sep-2011
                12-Apr-2019 
 ******************************************
 %nprocshared=4
 Will use up to    4 processors via shared memory.
 ------------------------------------------------
 # mpw1pw91/6-31+g** nmr scrf=(pcm,solvent=water)
 ------------------------------------------------
 1/38=1/1;
 2/12=2,17=6,18=5,40=1/2;
 3/5=1,6=6,7=111,11=2,16=1,25=1,30=1,70=2201,72=1,74=-7/1,2,8,3;
 4//1;
 5/5=2,38=5,53=1/2;
 8/6=1,10=90,11=11/1;
 10/13=100,45=16/2;
 6/7=2,8=2,9=2,10=2,28=1/1;
 99/9=1/99;
 -------
 comment
 -------
 Charge =  0 Multiplicity = 1
 Symbolic Z-Matrix:
 6                    -0.55319   1.50467   1.15355 
 6                    -1.41837   0.61264   0.25257 
 6                     0.45794   1.04914  -0.86322 
 6                     0.32526  -1.2427    0.23919 
 6                     1.01361  -0.38798  -0.8551 
 6                    -1.17952  -0.89902   0.38075 
 8                    -0.95137   0.99303  -1.0642 
 8                     0.64958   1.70206   0.38365 
 8                    -1.94213  -1.57407  -0.61735 
 8                     1.03286  -0.98704   1.46174 
 8                     2.4191   -0.4069   -0.69628 
 1                    -0.30736   1.04114   2.1104 
 1                    -1.02992   2.47629   1.32086 
 1                    -2.48521   0.83788   0.30581 
 1                     0.9103    1.64996  -1.65682 
 1                     0.41067  -2.30258  -0.02564 
 1                     0.78849  -0.82054  -1.83691 
 1                    -1.53518  -1.26618   1.34938 
 1                    -1.82826  -1.0594   -1.43608 
 1                     0.98494  -1.7842    2.01152 
 1                     2.5529   -0.4096    0.2706 
 
                          Input orientation:                          
 ---------------------------------------------------------------------
 Center     Atomic      Atomic             Coordinates (Angstroms)
 Number     Number       Type             X           Y           Z
 ---------------------------------------------------------------------
      1          6           0       -0.553193    1.504670    1.153547
      2          6           0       -1.418369    0.612635    0.252574
      3          6           0        0.457942    1.049143   -0.863221
      4          6           0        0.325264   -1.242698    0.239194
      5          6           0        1.013605   -0.387975   -0.855097
      6          6           0       -1.179521   -0.899016    0.380745
      7          8           0       -0.951374    0.993025   -1.064201
      8          8           0        0.649579    1.702061    0.383652
      9          8           0       -1.942130   -1.574071   -0.617350
     10          8           0        1.032863   -0.987036    1.461736
     11          8           0        2.419096   -0.406895   -0.696282
     12          1           0       -0.307359    1.041136    2.110395
     13          1           0       -1.029920    2.476285    1.320859
     14          1           0       -2.485213    0.837877    0.305806
     15          1           0        0.910301    1.649962   -1.656822
     16          1           0        0.410666   -2.302580   -0.025642
     17          1           0        0.788491   -0.820538   -1.836906
     18          1           0       -1.535184   -1.266176    1.349375
     19          1           0       -1.828264   -1.059403   -1.436081
     20          1           0        0.984944   -1.784204    2.011518
     21          1           0        2.552900   -0.409604    0.270604
 ---------------------------------------------------------------------
                    Distance matrix (angstroms):
                    1          2          3          4          5
     1  C    0.000000
     2  C    1.534929   0.000000
     3  C    2.301576   2.226226   0.000000
     4  C    3.025848   2.546114   2.546656   0.000000
     5  C    3.173580   2.853533   1.540823   1.549786   0.000000
     6  C    2.601387   1.535762   2.832677   1.550010   2.568710
     7  O    2.310570   1.447991   1.424680   2.885672   2.410815
     8  O    1.441653   2.341034   1.420464   2.966084   2.456678
     9  O    3.813642   2.410970   3.563994   2.446334   3.193700
    10  O    2.969706   3.166948   3.143562   1.435503   2.393107
    11  O    3.988791   4.082390   2.448273   2.440863   1.414562
    12  H    1.091264   2.206684   3.070528   3.019520   3.547034
    13  H    1.095124   2.182961   3.003444   4.103335   4.136999
    14  H    2.212686   1.091661   3.173865   3.497429   3.884860
    15  H    3.171923   3.185050   1.093350   3.507795   2.192401
    16  H    4.100569   3.452717   3.455115   1.095802   2.171922
    17  H    4.018646   3.360081   2.133784   2.168638   1.096237
    18  H    2.946225   2.178658   3.772113   2.166638   3.482421
    19  H    3.860887   2.411489   3.162416   2.734561   2.977344
    20  H    3.730774   3.822909   4.070591   1.967114   3.188692
    21  H    3.753911   4.100765   2.793269   2.378528   1.907118
                    6          7          8          9         10
     6  C    0.000000
     7  O    2.391598   0.000000
     8  O    3.179814   2.272017   0.000000
     9  O    1.425996   2.787697   4.295579   0.000000
    10  O    2.463926   3.773353   2.922399   3.676655   0.000000
    11  O    3.788432   3.668134   2.957219   4.515398   2.629686
    12  H    2.741632   3.239619   2.081873   4.117326   2.516036
    13  H    3.506972   2.809758   2.073282   4.581939   4.033548
    14  H    2.174223   2.062438   3.252660   2.639062   4.128358
    15  H    3.875090   2.061213   2.057723   4.428459   4.085852
    16  H    2.159592   3.714131   4.032586   2.533080   2.080884
    17  H    2.966008   2.629299   3.363581   3.084059   3.311869
    18  H    1.095238   3.357108   3.810019   2.031849   2.585616
    19  H    1.935833   2.262674   4.132411   0.973740   4.072914
    20  H    2.850945   4.574098   3.862183   3.939907   0.969553
    21  H    3.765982   4.003624   2.845090   4.727551   2.015623
                   11         12         13         14         15
    11  O    0.000000
    12  H    4.172264   0.000000
    13  H    4.927200   1.790283   0.000000
    14  H    5.158089   2.835649   2.415076   0.000000
    15  H    2.725759   4.005657   3.648815   4.005110   0.000000
    16  H    2.842036   4.032202   5.169710   4.284675   4.304994
    17  H    2.032485   4.499767   4.913974   4.249552   2.480048
    18  H    4.534248   2.722204   3.776522   2.533502   4.849895
    19  H    4.360406   4.393507   4.554027   2.658086   3.858643
    20  H    3.359457   3.108435   4.763240   4.671911   5.025514
    21  H    0.976104   3.697372   4.718897   5.190379   3.264187
                   16         17         18         19         20
    16  H    0.000000
    17  H    2.370628   0.000000
    18  H    2.598295   3.968683   0.000000
    19  H    2.923634   2.658030   2.808454   0.000000
    20  H    2.179112   3.972104   2.656658   4.508372   0.000000
    21  H    2.874071   2.779137   4.313919   4.746537   2.716393
                   21
    21  H    0.000000
 Stoichiometry    C6H10O5
 Framework group  C1[X(C6H10O5)]
 Deg. of freedom    57
 Full point group                 C1      NOp   1
 Largest Abelian subgroup         C1      NOp   1
 Largest concise Abelian subgroup C1      NOp   1
                         Standard orientation:                         
 ---------------------------------------------------------------------
 Center     Atomic      Atomic             Coordinates (Angstroms)
 Number     Number       Type             X           Y           Z
 ---------------------------------------------------------------------
      1          6           0       -0.553193    1.504670    1.153547
      2          6           0       -1.418369    0.612636    0.252574
      3          6           0        0.457942    1.049143   -0.863221
      4          6           0        0.325264   -1.242698    0.239194
      5          6           0        1.013605   -0.387975   -0.855097
      6          6           0       -1.179521   -0.899015    0.380745
      7          8           0       -0.951374    0.993025   -1.064201
      8          8           0        0.649579    1.702061    0.383652
      9          8           0       -1.942130   -1.574070   -0.617350
     10          8           0        1.032863   -0.987036    1.461736
     11          8           0        2.419096   -0.406895   -0.696282
     12          1           0       -0.307359    1.041136    2.110395
     13          1           0       -1.029919    2.476286    1.320859
     14          1           0       -2.485213    0.837878    0.305806
     15          1           0        0.910301    1.649962   -1.656822
     16          1           0        0.410665   -2.302580   -0.025642
     17          1           0        0.788491   -0.820538   -1.836906
     18          1           0       -1.535184   -1.266175    1.349375
     19          1           0       -1.828264   -1.059402   -1.436081
     20          1           0        0.984943   -1.784204    2.011518
     21          1           0        2.552900   -0.409604    0.270604
 ---------------------------------------------------------------------
 Rotational constants (GHZ):      1.4719205      1.2593188      1.0252496
 Standard basis: 6-31+G(d,p) (6D, 7F)
 There are   259 symmetry adapted basis functions of A   symmetry.
 Integral buffers will be    131072 words long.
 Raffenetti 2 integral format.
 Two-electron integral symmetry is turned on.
   259 basis functions,   422 primitive gaussians,   259 cartesian basis functions
    43 alpha electrons       43 beta electrons
       nuclear repulsion energy       734.4110120707 Hartrees.
 NAtoms=   21 NActive=   21 NUniq=   21 SFac= 1.00D+00 NAtFMM=   60 NAOKFM=F Big=F
 ------------------------------------------------------------------------------
 Polarizable Continuum Model (PCM)
 =================================
 Model                : PCM.
 Atomic radii         : UFF (Universal Force Field).
 Polarization charges : Total charges.
 Charge compensation  : None.
 Solution method      : Matrix inversion.
 Cavity type          : Scaled VdW (van der Waals Surface) (Alpha=1.100).
 Cavity algorithm     : GePol (No added spheres)
                        Default sphere list used, NSphG=   21.
                        Lebedev-Laikov grids with approx.  5.0 points / Ang**2.
                        Smoothing algorithm: Karplus/York (Gamma=1.0000).
                        Polarization charges: spherical gaussians, with
                                              point-specific exponents (IZeta= 3).
                        Self-potential: point-specific (ISelfS= 7).
                        Self-field    : sphere-specific E.n sum rule (ISelfD= 2).
 Solvent              : Water, Eps=  78.355300 Eps(inf)=   1.777849
 ------------------------------------------------------------------------------
 One-electron integrals computed using PRISM.
 NBasis=   259 RedAO= T  NBF=   259
 NBsUse=   259 1.00D-06 NBFU=   259
 Harris functional with IExCor=  908 diagonalized for initial guess.
 ExpMin= 4.38D-02 ExpMax= 5.48D+03 ExpMxC= 8.25D+02 IAcc=2 IRadAn=         4 AccDes= 0.00D+00
 HarFok:  IExCor=  908 AccDes= 0.00D+00 IRadAn=         4 IDoV= 1
 ScaDFX=  1.000000  1.000000  1.000000  1.000000
 FoFCou: FMM=F IPFlag=           0 FMFlag=      100000 FMFlg1=           0
         NFxFlg=           0 DoJE=T BraDBF=F KetDBF=T FulRan=T
         Omega=  0.000000  0.000000  1.000000  0.000000  0.000000 ICntrl=     500 IOpCl=  0
         NMat0=    1 NMatS0=    1 NMatT0=    0 NMatD0=    1 NMtDS0=    0 NMtDT0=    0
         I1Cent=           4 NGrid=           0.
 Petite list used in FoFCou.
 Initial guess orbital symmetries:
       Occupied  (A) (A) (A) (A) (A) (A) (A) (A) (A) (A) (A) (A)
                 (A) (A) (A) (A) (A) (A) (A) (A) (A) (A) (A) (A)
                 (A) (A) (A) (A) (A) (A) (A) (A) (A) (A) (A) (A)
                 (A) (A) (A) (A) (A) (A) (A)
       Virtual   (A) (A) (A) (A) (A) (A) (A) (A) (A) (A) (A) (A)
                 (A) (A) (A) (A) (A) (A) (A) (A) (A) (A) (A) (A)
                 (A) (A) (A) (A) (A) (A) (A) (A) (A) (A) (A) (A)
                 (A) (A) (A) (A) (A) (A) (A) (A) (A) (A) (A) (A)
                 (A) (A) (A) (A) (A) (A) (A) (A) (A) (A) (A) (A)
                 (A) (A) (A) (A) (A) (A) (A) (A) (A) (A) (A) (A)
                 (A) (A) (A) (A) (A) (A) (A) (A) (A) (A) (A) (A)
                 (A) (A) (A) (A) (A) (A) (A) (A) (A) (A) (A) (A)
                 (A) (A) (A) (A) (A) (A) (A) (A) (A) (A) (A) (A)
                 (A) (A) (A) (A) (A) (A) (A) (A) (A) (A) (A) (A)
                 (A) (A) (A) (A) (A) (A) (A) (A) (A) (A) (A) (A)
                 (A) (A) (A) (A) (A) (A) (A) (A) (A) (A) (A) (A)
                 (A) (A) (A) (A) (A) (A) (A) (A) (A) (A) (A) (A)
                 (A) (A) (A) (A) (A) (A) (A) (A) (A) (A) (A) (A)
                 (A) (A) (A) (A) (A) (A) (A) (A) (A) (A) (A) (A)
                 (A) (A) (A) (A) (A) (A) (A) (A) (A) (A) (A) (A)
                 (A) (A) (A) (A) (A) (A) (A) (A) (A) (A) (A) (A)
                 (A) (A) (A) (A) (A) (A) (A) (A) (A) (A) (A) (A)
 The electronic state of the initial guess is 1-A.
 Requested convergence on RMS density matrix=1.00D-08 within 128 cycles.
 Requested convergence on MAX density matrix=1.00D-06.
 Requested convergence on             energy=1.00D-06.
 No special actions if energy rises.
 Error on total polarization charges =  0.01144
 SCF Done:  E(RmPW1PW91) =  -610.650056538     A.U. after   12 cycles
             Convg  =    0.8990D-08             -V/T =  2.0090
 Range of M.O.s used for correlation:     1   259
 NBasis=   259 NAE=    43 NBE=    43 NFC=     0 NFV=     0
 NROrb=    259 NOA=    43 NOB=    43 NVA=   216 NVB=   216

 **** Warning!!: The largest alpha MO coefficient is  0.69021747D+02

 NEqPCM:  Using equilibrium solvation (IEInf=0, Eps=  78.3553, EpsInf=   1.7778)
          Differentiating once with respect to magnetic field using GIAOs.
          Electric field/nuclear overlap derivatives assumed to be zero.
 FoFCou: FMM=F IPFlag=           0 FMFlag=    10101102 FMFlg1=           0
         NFxFlg=    40000000 DoJE=F BraDBF=F KetDBF=T FulRan=T
         Omega=  0.000000  0.000000  1.000000  0.000000  0.000000 ICntrl=    6100 IOpCl=  0
         NMat0=    1 NMatS0=    1 NMatT0=    0 NMatD0=    1 NMtDS0=    0 NMtDT0=    0
         I1Cent=           7 NGrid=        1522.
 Symmetry not used in FoFCou.
          There are     3 degrees of freedom in the 1st order CPHF.  IDoFFX=0.
      3 vectors produced by pass  0 Test12= 3.10D-13 3.33D-08 XBig12= 2.03D+01 1.13D+00.
 AX will form     3 AO Fock derivatives at one time.
      3 vectors produced by pass  1 Test12= 3.10D-13 3.33D-08 XBig12= 4.31D-02 2.98D-02.
      3 vectors produced by pass  2 Test12= 3.10D-13 3.33D-08 XBig12= 9.06D-05 1.32D-03.
      3 vectors produced by pass  3 Test12= 3.10D-13 3.33D-08 XBig12= 4.02D-07 1.31D-04.
      3 vectors produced by pass  4 Test12= 3.10D-13 3.33D-08 XBig12= 1.40D-09 6.34D-06.
      3 vectors produced by pass  5 Test12= 3.10D-13 3.33D-08 XBig12= 4.99D-12 3.97D-07.
 Inverted reduced A of dimension    18 with in-core refinement.
 Calculating GIAO nuclear magnetic shielding tensors.
 SCF GIAO Magnetic shielding tensor (ppm):
      1  C    Isotropic =   130.1203   Anisotropy =    64.4612
   XX=   156.5314   YX=    12.8102   ZX=   -23.1015
   XY=    12.8585   YY=   106.7489   ZY=     4.2652
   XZ=   -28.3794   YZ=    -1.1989   ZZ=   127.0808
   Eigenvalues:   100.2034   117.0631   173.0945
      2  C    Isotropic =   117.6279   Anisotropy =    43.8300
   XX=   102.3392   YX=     9.5390   ZX=    -7.0361
   XY=    19.3361   YY=   110.2833   ZY=    -1.6385
   XZ=   -15.2311   YZ=   -13.1570   ZZ=   140.2612
   Eigenvalues:    90.9039   115.1319   146.8479
      3  C    Isotropic =    91.3784   Anisotropy =    23.8470
   XX=   102.8377   YX=     2.4145   ZX=     9.5071
   XY=    -9.0913   YY=    77.1862   ZY=    22.9466
   XZ=     1.7802   YZ=    11.2475   ZZ=    94.1111
   Eigenvalues:    65.6573   101.2014   107.2763
      4  C    Isotropic =   122.1018   Anisotropy =    46.1831
   XX=   130.3419   YX=     4.3939   ZX=    27.6183
   XY=     1.0874   YY=   101.9432   ZY=    15.3656
   XZ=     7.3656   YZ=    13.1424   ZZ=   134.0203
   Eigenvalues:    96.0371   117.3778   152.8906
      5  C    Isotropic =   128.6061   Anisotropy =    45.1636
   XX=   154.8985   YX=    -6.4703   ZX=     3.7414
   XY=    -7.5299   YY=   122.6269   ZY=     3.0785
   XZ=    19.0797   YZ=    -0.1685   ZZ=   108.2930
   Eigenvalues:   105.1116   121.9915   158.7152
      6  C    Isotropic =   122.3221   Anisotropy =    42.6777
   XX=   122.4152   YX=     8.4160   ZX=    10.9182
   XY=     5.0333   YY=   110.5406   ZY=     9.6186
   XZ=    20.0504   YZ=    18.8732   ZZ=   134.0103
   Eigenvalues:   103.7934   112.3990   150.7738
      7  O    Isotropic =   241.5466   Anisotropy =    64.3243
   XX=   283.8013   YX=    10.4777   ZX=     8.8885
   XY=   -13.0470   YY=   184.4435   ZY=    37.3869
   XZ=   -13.6352   YZ=    39.0779   ZZ=   256.3949
   Eigenvalues:   167.9214   272.2888   284.4294
      8  O    Isotropic =   274.8684   Anisotropy =    95.9661
   XX=   313.2306   YX=    32.2893   ZX=   -12.5502
   XY=    32.9924   YY=   216.1254   ZY=    48.1605
   XZ=    23.7101   YZ=    54.8920   ZZ=   295.2492
   Eigenvalues:   184.9956   300.7638   338.8458
      9  O    Isotropic =   289.1358   Anisotropy =    37.3740
   XX=   295.0021   YX=     8.8266   ZX=    30.2656
   XY=     3.9577   YY=   295.7656   ZY=    -0.9183
   XZ=    18.5145   YZ=     4.5329   ZZ=   276.6398
   Eigenvalues:   259.6293   293.7264   314.0518
     10  O    Isotropic =   301.3800   Anisotropy =    36.6060
   XX=   280.3424   YX=     0.5950   ZX=   -11.5100
   XY=     7.1126   YY=   305.9437   ZY=   -11.0146
   XZ=    14.1633   YZ=   -14.0290   ZZ=   317.8537
   Eigenvalues:   279.4756   298.8803   325.7840
     11  O    Isotropic =   309.0036   Anisotropy =    24.9415
   XX=   315.3678   YX=    -5.7206   ZX=    -1.6353
   XY=   -21.9066   YY=   306.3071   ZY=   -13.7694
   XZ=   -14.2704   YZ=    -1.2031   ZZ=   305.3359
   Eigenvalues:   289.1415   312.2380   325.6313
     12  H    Isotropic =    27.1425   Anisotropy =     5.9886
   XX=    24.3561   YX=    -0.3345   ZX=    -1.6190
   XY=    -1.7491   YY=    26.1119   ZY=    -0.4142
   XZ=    -0.3627   YZ=     0.8809   ZZ=    30.9595
   Eigenvalues:    23.7807    26.5119    31.1349
     13  H    Isotropic =    27.6602   Anisotropy =    11.1828
   XX=    27.9518   YX=    -4.0364   ZX=    -3.4699
   XY=    -2.5394   YY=    30.0277   ZY=     4.1136
   XZ=    -3.2739   YZ=     3.8393   ZZ=    25.0010
   Eigenvalues:    22.2931    25.5720    35.1154
     14  H    Isotropic =    27.1414   Anisotropy =     8.3465
   XX=    31.5331   YX=    -1.3471   ZX=    -1.7096
   XY=    -1.7654   YY=    25.2296   ZY=     0.3939
   XZ=    -3.2977   YZ=     0.6038   ZZ=    24.6614
   Eigenvalues:    23.8460    24.8724    32.7057
     15  H    Isotropic =    26.1890   Anisotropy =     7.6111
   XX=    24.7399   YX=     0.9843   ZX=    -2.1052
   XY=     1.4228   YY=    25.1372   ZY=    -2.4291
   XZ=    -2.6762   YZ=    -3.0192   ZZ=    28.6898
   Eigenvalues:    23.5768    23.7271    31.2630
     16  H    Isotropic =    27.4880   Anisotropy =     6.5910
   XX=    25.1208   YX=     0.4250   ZX=     2.0523
   XY=     0.3438   YY=    30.8760   ZY=     1.2631
   XZ=     2.0915   YZ=     2.8392   ZZ=    26.4673
   Eigenvalues:    23.4940    27.0880    31.8820
     17  H    Isotropic =    27.9882   Anisotropy =     5.4106
   XX=    28.6188   YX=    -0.8484   ZX=     0.5490
   XY=    -0.2169   YY=    25.2028   ZY=     3.7340
   XZ=    -0.6424   YZ=     2.2958   ZZ=    30.1432
   Eigenvalues:    23.7317    28.6377    31.5953
     18  H    Isotropic =    27.8275   Anisotropy =     5.8287
   XX=    27.2773   YX=     2.4966   ZX=    -0.8925
   XY=     2.4414   YY=    25.9211   ZY=    -0.9913
   XZ=    -0.8137   YZ=    -2.7874   ZZ=    30.2840
   Eigenvalues:    23.8709    27.8982    31.7133
     19  H    Isotropic =    29.0834   Anisotropy =    13.4747
   XX=    23.0100   YX=     3.0868   ZX=     1.8277
   XY=     4.4226   YY=    28.0863   ZY=    -4.2596
   XZ=     2.3810   YZ=    -4.4418   ZZ=    36.1538
   Eigenvalues:    20.0236    29.1600    38.0665
     20  H    Isotropic =    29.4802   Anisotropy =    21.3531
   XX=    22.3457   YX=     0.0336   ZX=     3.7449
   XY=    -0.3061   YY=    34.1626   ZY=   -10.3023
   XZ=     2.2632   YZ=   -10.4942   ZZ=    31.9323
   Eigenvalues:    20.2177    24.5073    43.7156
     21  H    Isotropic =    27.9004   Anisotropy =    15.7622
   XX=    27.8544   YX=     0.2193   ZX=     2.0442
   XY=     1.2074   YY=    18.0686   ZY=    -1.8399
   XZ=     2.6251   YZ=    -1.5165   ZZ=    37.7782
   Eigenvalues:    17.8423    27.4503    38.4085
 End of Minotr Frequency-dependent properties file   721 does not exist.
 End of Minotr Frequency-dependent properties file   722 does not exist.

 **********************************************************************

            Population analysis using the SCF density.

 **********************************************************************

 Orbital symmetries:
       Occupied  (A) (A) (A) (A) (A) (A) (A) (A) (A) (A) (A) (A)
                 (A) (A) (A) (A) (A) (A) (A) (A) (A) (A) (A) (A)
                 (A) (A) (A) (A) (A) (A) (A) (A) (A) (A) (A) (A)
                 (A) (A) (A) (A) (A) (A) (A)
       Virtual   (A) (A) (A) (A) (A) (A) (A) (A) (A) (A) (A) (A)
                 (A) (A) (A) (A) (A) (A) (A) (A) (A) (A) (A) (A)
                 (A) (A) (A) (A) (A) (A) (A) (A) (A) (A) (A) (A)
                 (A) (A) (A) (A) (A) (A) (A) (A) (A) (A) (A) (A)
                 (A) (A) (A) (A) (A) (A) (A) (A) (A) (A) (A) (A)
                 (A) (A) (A) (A) (A) (A) (A) (A) (A) (A) (A) (A)
                 (A) (A) (A) (A) (A) (A) (A) (A) (A) (A) (A) (A)
                 (A) (A) (A) (A) (A) (A) (A) (A) (A) (A) (A) (A)
                 (A) (A) (A) (A) (A) (A) (A) (A) (A) (A) (A) (A)
                 (A) (A) (A) (A) (A) (A) (A) (A) (A) (A) (A) (A)
                 (A) (A) (A) (A) (A) (A) (A) (A) (A) (A) (A) (A)
                 (A) (A) (A) (A) (A) (A) (A) (A) (A) (A) (A) (A)
                 (A) (A) (A) (A) (A) (A) (A) (A) (A) (A) (A) (A)
                 (A) (A) (A) (A) (A) (A) (A) (A) (A) (A) (A) (A)
                 (A) (A) (A) (A) (A) (A) (A) (A) (A) (A) (A) (A)
                 (A) (A) (A) (A) (A) (A) (A) (A) (A) (A) (A) (A)
                 (A) (A) (A) (A) (A) (A) (A) (A) (A) (A) (A) (A)
                 (A) (A) (A) (A) (A) (A) (A) (A) (A) (A) (A) (A)
 The electronic state is 1-A.
 Alpha  occ. eigenvalues --  -19.28120 -19.27173 -19.26726 -19.26383 -19.25850
 Alpha  occ. eigenvalues --  -10.35626 -10.31901 -10.31805 -10.31588 -10.31131
 Alpha  occ. eigenvalues --  -10.30509  -1.14305  -1.08612  -1.07223  -1.05508
 Alpha  occ. eigenvalues --   -1.03817  -0.82091  -0.80709  -0.70537  -0.68582
 Alpha  occ. eigenvalues --   -0.64878  -0.61296  -0.57903  -0.55489  -0.54073
 Alpha  occ. eigenvalues --   -0.52921  -0.50426  -0.47780  -0.47107  -0.46283
 Alpha  occ. eigenvalues --   -0.45170  -0.43429  -0.42528  -0.40112  -0.38791
 Alpha  occ. eigenvalues --   -0.37971  -0.37276  -0.35049  -0.34355  -0.32986
 Alpha  occ. eigenvalues --   -0.30741  -0.28823  -0.27249
 Alpha virt. eigenvalues --    0.00394   0.01423   0.02259   0.02540   0.04212
 Alpha virt. eigenvalues --    0.04887   0.05001   0.05374   0.05761   0.08195
 Alpha virt. eigenvalues --    0.08601   0.09124   0.10055   0.10775   0.11612
 Alpha virt. eigenvalues --    0.12215   0.12524   0.13478   0.13981   0.14356
 Alpha virt. eigenvalues --    0.14888   0.15915   0.16222   0.17165   0.17513
 Alpha virt. eigenvalues --    0.18892   0.19154   0.19366   0.20650   0.20874
 Alpha virt. eigenvalues --    0.21563   0.21793   0.22672   0.23661   0.24261
 Alpha virt. eigenvalues --    0.24520   0.24891   0.25699   0.25829   0.27798
 Alpha virt. eigenvalues --    0.28106   0.28447   0.29317   0.29917   0.31244
 Alpha virt. eigenvalues --    0.31686   0.32177   0.32917   0.33559   0.33922
 Alpha virt. eigenvalues --    0.34338   0.35366   0.36127   0.36347   0.36693
 Alpha virt. eigenvalues --    0.37659   0.38682   0.39057   0.40076   0.40270
 Alpha virt. eigenvalues --    0.40900   0.43065   0.44467   0.46339   0.49195
 Alpha virt. eigenvalues --    0.51008   0.64321   0.66797   0.67597   0.68080
 Alpha virt. eigenvalues --    0.69762   0.72627   0.73929   0.76309   0.78210
 Alpha virt. eigenvalues --    0.79939   0.81611   0.82925   0.83918   0.86731
 Alpha virt. eigenvalues --    0.88293   0.90283   0.96249   0.97459   0.99471
 Alpha virt. eigenvalues --    1.00364   1.03829   1.05304   1.05938   1.07753
 Alpha virt. eigenvalues --    1.09996   1.10825   1.11557   1.12065   1.13197
 Alpha virt. eigenvalues --    1.18564   1.20950   1.23247   1.24958   1.27116
 Alpha virt. eigenvalues --    1.28756   1.30161   1.30854   1.32158   1.34175
 Alpha virt. eigenvalues --    1.35735   1.37327   1.39442   1.40281   1.43604
 Alpha virt. eigenvalues --    1.44581   1.44698   1.45559   1.48566   1.51054
 Alpha virt. eigenvalues --    1.53672   1.56130   1.57954   1.59596   1.60539
 Alpha virt. eigenvalues --    1.62635   1.64791   1.66982   1.67333   1.68481
 Alpha virt. eigenvalues --    1.70385   1.73722   1.74860   1.76254   1.78238
 Alpha virt. eigenvalues --    1.79939   1.83287   1.85875   1.87171   1.88886
 Alpha virt. eigenvalues --    1.90328   1.93255   1.95085   1.98100   1.99021
 Alpha virt. eigenvalues --    2.01901   2.03589   2.04937   2.08117   2.08578
 Alpha virt. eigenvalues --    2.11632   2.12756   2.16690   2.17499   2.17939
 Alpha virt. eigenvalues --    2.21014   2.21445   2.23328   2.24402   2.28829
 Alpha virt. eigenvalues --    2.32532   2.34056   2.38181   2.41264   2.43270
 Alpha virt. eigenvalues --    2.44777   2.49153   2.50140   2.50816   2.53207
 Alpha virt. eigenvalues --    2.55550   2.56879   2.60960   2.61306   2.62306
 Alpha virt. eigenvalues --    2.65243   2.66968   2.67784   2.69799   2.71082
 Alpha virt. eigenvalues --    2.73408   2.75273   2.75894   2.78772   2.81570
 Alpha virt. eigenvalues --    2.82279   2.85599   2.87676   2.89287   2.90686
 Alpha virt. eigenvalues --    2.94539   2.95279   2.99178   3.00816   3.02150
 Alpha virt. eigenvalues --    3.03387   3.05680   3.11001   3.15320   3.23833
 Alpha virt. eigenvalues --    3.36416   3.41397   3.46454   3.47814   3.49372
 Alpha virt. eigenvalues --    3.50956   3.53567   3.57317   3.59134   3.61141
 Alpha virt. eigenvalues --    4.32276   4.32688   4.44020   4.48060   4.51031
 Alpha virt. eigenvalues --    4.54194   4.64443   4.81823   4.90863   4.95215
 Alpha virt. eigenvalues --    5.02257
          Condensed to atoms (all electrons):
              1          2          3          4          5          6
     1  C    5.876263  -0.471338  -0.587669  -0.462979   0.476619   0.177075
     2  C   -0.471338   7.025032  -0.188981   0.975203  -0.398321  -1.123007
     3  C   -0.587669  -0.188981   7.626388   0.530501  -2.116659   0.230053
     4  C   -0.462979   0.975203   0.530501   7.323040  -1.005244  -1.436950
     5  C    0.476619  -0.398321  -2.116659  -1.005244   8.350200   0.034270
     6  C    0.177075  -1.123007   0.230053  -1.436950   0.034270   7.684875
     7  O    0.008735   0.121427   0.188843  -0.103281   0.019887  -0.115284
     8  O    0.170568  -0.117499   0.336879   0.105544  -0.224653  -0.043047
     9  O    0.019069  -0.125473  -0.019813  -0.093391   0.030250   0.309735
    10  O    0.050015  -0.120281   0.001250  -0.030896  -0.089552   0.143777
    11  O    0.020974  -0.028074  -0.138984  -0.148697   0.347258   0.048655
    12  H    0.492387  -0.192284   0.003705  -0.069259   0.032562   0.094655
    13  H    0.368774   0.025004  -0.010314   0.012976  -0.004246  -0.009439
    14  H    0.023119   0.298434  -0.004825  -0.012168   0.014595   0.017063
    15  H    0.007439   0.045448   0.327232   0.032913  -0.009481  -0.032141
    16  H    0.000036  -0.007845   0.021933   0.301653  -0.034411   0.047589
    17  H    0.005968  -0.017642  -0.055407  -0.056037   0.421871   0.013179
    18  H    0.022769  -0.016459  -0.043147  -0.027803   0.065570   0.323085
    19  H    0.007634  -0.014416  -0.015860  -0.019356   0.035165  -0.016837
    20  H   -0.011143   0.027300  -0.002636   0.104352   0.000400  -0.087819
    21  H    0.006555  -0.012944  -0.021795  -0.076519   0.048914   0.024440
              7          8          9         10         11         12
     1  C    0.008735   0.170568   0.019069   0.050015   0.020974   0.492387
     2  C    0.121427  -0.117499  -0.125473  -0.120281  -0.028074  -0.192284
     3  C    0.188843   0.336879  -0.019813   0.001250  -0.138984   0.003705
     4  C   -0.103281   0.105544  -0.093391  -0.030896  -0.148697  -0.069259
     5  C    0.019887  -0.224653   0.030250  -0.089552   0.347258   0.032562
     6  C   -0.115284  -0.043047   0.309735   0.143777   0.048655   0.094655
     7  O    8.300847  -0.037921  -0.005747   0.012180   0.005290   0.011792
     8  O   -0.037921   8.295884  -0.002119   0.007713   0.017502  -0.044229
     9  O   -0.005747  -0.002119   8.189472   0.006090  -0.001414   0.000021
    10  O    0.012180   0.007713   0.006090   8.441329  -0.004440  -0.002507
    11  O    0.005290   0.017502  -0.001414  -0.004440   8.208567   0.000233
    12  H    0.011792  -0.044229   0.000021  -0.002507   0.000233   0.519335
    13  H   -0.004328  -0.051950  -0.000347   0.001121  -0.000063  -0.038043
    14  H   -0.033591   0.007275   0.002845  -0.000085   0.000046   0.002218
    15  H   -0.038256  -0.048841   0.000210  -0.000274   0.000579  -0.000260
    16  H   -0.001633   0.000125  -0.004724  -0.031629   0.005315  -0.000039
    17  H    0.003600   0.009668   0.001629   0.007292  -0.053832  -0.000021
    18  H    0.011654  -0.001183  -0.048520  -0.002705  -0.000889   0.000066
    19  H    0.029472  -0.000722   0.253477  -0.000418  -0.000270  -0.000013
    20  H   -0.000345   0.001271  -0.000054   0.219333  -0.001972  -0.000454
    21  H    0.000057   0.002002   0.000019   0.030147   0.254467   0.000003
             13         14         15         16         17         18
     1  C    0.368774   0.023119   0.007439   0.000036   0.005968   0.022769
     2  C    0.025004   0.298434   0.045448  -0.007845  -0.017642  -0.016459
     3  C   -0.010314  -0.004825   0.327232   0.021933  -0.055407  -0.043147
     4  C    0.012976  -0.012168   0.032913   0.301653  -0.056037  -0.027803
     5  C   -0.004246   0.014595  -0.009481  -0.034411   0.421871   0.065570
     6  C   -0.009439   0.017063  -0.032141   0.047589   0.013179   0.323085
     7  O   -0.004328  -0.033591  -0.038256  -0.001633   0.003600   0.011654
     8  O   -0.051950   0.007275  -0.048841   0.000125   0.009668  -0.001183
     9  O   -0.000347   0.002845   0.000210  -0.004724   0.001629  -0.048520
    10  O    0.001121  -0.000085  -0.000274  -0.031629   0.007292  -0.002705
    11  O   -0.000063   0.000046   0.000579   0.005315  -0.053832  -0.000889
    12  H   -0.038043   0.002218  -0.000260  -0.000039  -0.000021   0.000066
    13  H    0.538724  -0.003709   0.000305   0.000003   0.000015   0.000000
    14  H   -0.003709   0.494503   0.000019  -0.000124   0.000006  -0.001467
    15  H    0.000305   0.000019   0.534605  -0.000127  -0.003080   0.000022
    16  H    0.000003  -0.000124  -0.000127   0.533425  -0.005142  -0.004442
    17  H    0.000015   0.000006  -0.003080  -0.005142   0.533950  -0.000163
    18  H    0.000000  -0.001467   0.000022  -0.004442  -0.000163   0.530158
    19  H   -0.000004  -0.001098   0.000055  -0.000685  -0.000880   0.006210
    20  H    0.000003  -0.000002   0.000009  -0.010748  -0.000155   0.001930
    21  H    0.000002   0.000001  -0.000255  -0.000041   0.006178  -0.000023
             19         20         21
     1  C    0.007634  -0.011143   0.006555
     2  C   -0.014416   0.027300  -0.012944
     3  C   -0.015860  -0.002636  -0.021795
     4  C   -0.019356   0.104352  -0.076519
     5  C    0.035165   0.000400   0.048914
     6  C   -0.016837  -0.087819   0.024440
     7  O    0.029472  -0.000345   0.000057
     8  O   -0.000722   0.001271   0.002002
     9  O    0.253477  -0.000054   0.000019
    10  O   -0.000418   0.219333   0.030147
    11  O   -0.000270  -0.001972   0.254467
    12  H   -0.000013  -0.000454   0.000003
    13  H   -0.000004   0.000003   0.000002
    14  H   -0.001098  -0.000002   0.000001
    15  H    0.000055   0.000009  -0.000255
    16  H   -0.000685  -0.010748  -0.000041
    17  H   -0.000880  -0.000155   0.006178
    18  H    0.006210   0.001930  -0.000023
    19  H    0.357995   0.000003  -0.000002
    20  H    0.000003   0.344568  -0.000913
    21  H   -0.000002  -0.000913   0.347679
 Mulliken atomic charges:
              1
     1  C   -0.200870
     2  C    0.316715
     3  C   -0.060695
     4  C    0.156396
     5  C    0.005007
     6  C   -0.283928
     7  O   -0.373398
     8  O   -0.382268
     9  O   -0.511217
    10  O   -0.637459
    11  O   -0.530251
    12  H    0.190132
    13  H    0.175515
    14  H    0.196946
    15  H    0.183877
    16  H    0.191509
    17  H    0.189002
    18  H    0.185337
    19  H    0.380549
    20  H    0.417071
    21  H    0.392030
 Sum of Mulliken atomic charges =   0.00000
 Mulliken charges with hydrogens summed into heavy atoms:
              1
     1  C    0.164776
     2  C    0.513661
     3  C    0.123182
     4  C    0.347905
     5  C    0.194008
     6  C   -0.098591
     7  O   -0.373398
     8  O   -0.382268
     9  O   -0.130668
    10  O   -0.220388
    11  O   -0.138221
 Sum of Mulliken charges with hydrogens summed into heavy atoms =   0.00000
 Electronic spatial extent (au):  <R**2>=           1367.2744
 Charge=              0.0000 electrons
 Dipole moment (field-independent basis, Debye):
    X=             -2.1511    Y=             -1.5832    Z=              2.6842  Tot=              3.7867
 Quadrupole moment (field-independent basis, Debye-Ang):
   XX=            -73.7085   YY=            -65.4017   ZZ=            -57.9075
   XY=             -6.7946   XZ=             -0.3551   YZ=             -4.0224
 Traceless Quadrupole moment (field-independent basis, Debye-Ang):
   XX=             -8.0360   YY=              0.2709   ZZ=              7.7651
   XY=             -6.7946   XZ=             -0.3551   YZ=             -4.0224
 Octapole moment (field-independent basis, Debye-Ang**2):
  XXX=            -10.1764  YYY=             -9.5633  ZZZ=              4.7687  XYY=              9.3242
  XXY=             12.0972  XXZ=             17.4575  XZZ=             -2.2805  YZZ=            -10.5760
  YYZ=             14.7150  XYZ=             -9.9130
 Hexadecapole moment (field-independent basis, Debye-Ang**3):
 XXXX=           -764.9078 YYYY=           -594.0573 ZZZZ=           -334.6781 XXXY=            -25.6361
 XXXZ=             44.1102 YYYX=            -41.9381 YYYZ=            -32.3518 ZZZX=             16.3480
 ZZZY=            -17.5143 XXYY=           -243.4311 XXZZ=           -180.5471 YYZZ=           -131.4788
 XXYZ=            -13.1717 YYXZ=             -5.7557 ZZXY=              2.4030
 N-N= 7.344110120707D+02 E-N=-2.898716602671D+03  KE= 6.052087063939D+02
 1\1\GINC-COMPUTE-8-20\SP\RmPW1PW91\6-31+G(d,p)\C6H10O5\MMARCARINO.IQUI
 R\12-Apr-2019\0\\# mpw1pw91/6-31+g** nmr scrf=(pcm,solvent=water)\\com
 ment\\0,1\C,0,-0.553193,1.50467,1.153547\C,0,-1.418369,0.612635,0.2525
 74\C,0,0.457942,1.049143,-0.863221\C,0,0.325264,-1.242698,0.239194\C,0
 ,1.013605,-0.387975,-0.855097\C,0,-1.179521,-0.899016,0.380745\O,0,-0.
 951374,0.993025,-1.064201\O,0,0.649579,1.702061,0.383652\O,0,-1.94213,
 -1.574071,-0.61735\O,0,1.032863,-0.987036,1.461736\O,0,2.419096,-0.406
 895,-0.696282\H,0,-0.307359,1.041136,2.110395\H,0,-1.02992,2.476285,1.
 320859\H,0,-2.485213,0.837877,0.305806\H,0,0.910301,1.649962,-1.656822
 \H,0,0.410666,-2.30258,-0.025642\H,0,0.788491,-0.820538,-1.836906\H,0,
 -1.535184,-1.266176,1.349375\H,0,-1.828264,-1.059403,-1.436081\H,0,0.9
 84944,-1.784204,2.011518\H,0,2.5529,-0.409604,0.270604\\Version=EM64L-
 G09RevC.01\State=1-A\HF=-610.6500565\RMSD=8.990e-09\Dipole=-0.8463261,
 -0.6228847,1.0560401\Quadrupole=-5.9745314,0.201391,5.7731404,-5.05161
 52,-0.2640386,-2.990561\PG=C01 [X(C6H10O5)]\\@


 IBM COMPATIBILITY IS LIKE PREGNANCY. YOU ARE OR
 OR YOU ARE NOT. -- ADAM OSBORNE
 Job cpu time:  0 days  0 hours 21 minutes 58.3 seconds.
 File lengths (MBytes):  RWF=     82 Int=      0 D2E=      0 Chk=      5 Scr=      1
 Normal termination of Gaussian 09 at Fri Apr 12 11:43:20 2019.
