 Entering Gaussian System, Link 0=g09
 Input=/home/asarotti.iquir/SCF3/05_SSR_Levo03_OPTB_energy_b3lyp_smd.gjc
 Output=/home/asarotti.iquir/SCF3/05_SSR_Levo03_OPTB_energy_b3lyp_smd.log
 Initial command:
 /share/apps/Gaussian09/EM64T.SSE4.2-enabled/g09/l1.exe /tmp/Gau-12264.inp -scrdir=/tmp/
 Entering Link 1 = /share/apps/Gaussian09/EM64T.SSE4.2-enabled/g09/l1.exe PID=     12265.
  
 Copyright (c) 1988,1990,1992,1993,1995,1998,2003,2009,2011,
            Gaussian, Inc.  All Rights Reserved.
  
 This is part of the Gaussian(R) 09 program.  It is based on
 the Gaussian(R) 03 system (copyright 2003, Gaussian, Inc.),
 the Gaussian(R) 98 system (copyright 1998, Gaussian, Inc.),
 the Gaussian(R) 94 system (copyright 1995, Gaussian, Inc.),
 the Gaussian 92(TM) system (copyright 1992, Gaussian, Inc.),
 the Gaussian 90(TM) system (copyright 1990, Gaussian, Inc.),
 the Gaussian 88(TM) system (copyright 1988, Gaussian, Inc.),
 the Gaussian 86(TM) system (copyright 1986, Carnegie Mellon
 University), and the Gaussian 82(TM) system (copyright 1983,
 Carnegie Mellon University). Gaussian is a federally registered
 trademark of Gaussian, Inc.
  
 This software contains proprietary and confidential information,
 including trade secrets, belonging to Gaussian, Inc.
  
 This software is provided under written license and may be
 used, copied, transmitted, or stored only in accord with that
 written license.
  
 The following legend is applicable only to US Government
 contracts under FAR:
  
                    RESTRICTED RIGHTS LEGEND
  
 Use, reproduction and disclosure by the US Government is
 subject to restrictions as set forth in subparagraphs (a)
 and (c) of the Commercial Computer Software - Restricted
 Rights clause in FAR 52.227-19.
  
 Gaussian, Inc.
 340 Quinnipiac St., Bldg. 40, Wallingford CT 06492
  
  
 ---------------------------------------------------------------
 Warning -- This program may not be used in any manner that
 competes with the business of Gaussian, Inc. or will provide
 assistance to any competitor of Gaussian, Inc.  The licensee
 of this program is prohibited from giving any competitor of
 Gaussian, Inc. access to this program.  By using this program,
 the user acknowledges that Gaussian, Inc. is engaged in the
 business of creating and licensing software in the field of
 computational chemistry and represents and warrants to the
 licensee that it is not a competitor of Gaussian, Inc. and that
 it will not use this program in any manner prohibited above.
 ---------------------------------------------------------------
  

 Cite this work as:
 Gaussian 09, Revision C.01,
 M. J. Frisch, G. W. Trucks, H. B. Schlegel, G. E. Scuseria, 
 M. A. Robb, J. R. Cheeseman, G. Scalmani, V. Barone, B. Mennucci, 
 G. A. Petersson, H. Nakatsuji, M. Caricato, X. Li, H. P. Hratchian, 
 A. F. Izmaylov, J. Bloino, G. Zheng, J. L. Sonnenberg, M. Hada, 
 M. Ehara, K. Toyota, R. Fukuda, J. Hasegawa, M. Ishida, T. Nakajima, 
 Y. Honda, O. Kitao, H. Nakai, T. Vreven, J. A. Montgomery, Jr., 
 J. E. Peralta, F. Ogliaro, M. Bearpark, J. J. Heyd, E. Brothers, 
 K. N. Kudin, V. N. Staroverov, T. Keith, R. Kobayashi, J. Normand, 
 K. Raghavachari, A. Rendell, J. C. Burant, S. S. Iyengar, J. Tomasi, 
 M. Cossi, N. Rega, J. M. Millam, M. Klene, J. E. Knox, J. B. Cross, 
 V. Bakken, C. Adamo, J. Jaramillo, R. Gomperts, R. E. Stratmann, 
 O. Yazyev, A. J. Austin, R. Cammi, C. Pomelli, J. W. Ochterski, 
 R. L. Martin, K. Morokuma, V. G. Zakrzewski, G. A. Voth, 
 P. Salvador, J. J. Dannenberg, S. Dapprich, A. D. Daniels, 
 O. Farkas, J. B. Foresman, J. V. Ortiz, J. Cioslowski, 
 and D. J. Fox, Gaussian, Inc., Wallingford CT, 2010.
 
 ******************************************
 Gaussian 09:  EM64L-G09RevC.01 23-Sep-2011
                16-Apr-2019 
 ******************************************
 %nprocshared=4
 Will use up to    4 processors via shared memory.
 -----------------------------------------------------------
 # B3LYP/6-31+G** test scrf=(pcm,solvent=water,smd,dovacuum)
 -----------------------------------------------------------
 1/38=1/1;
 2/12=2,17=6,18=5,40=1/2;
 3/5=1,6=6,7=111,11=2,16=1,25=1,30=1,70=32101,72=1,74=-5/1,2,3;
 4//1;
 5/5=2,38=5,53=1/2;
 6/7=2,8=2,9=2,10=2,28=1/1;
 99/5=1,9=1/99;
 -------
 comment
 -------
 Charge =  0 Multiplicity = 1
 Symbolic Z-Matrix:
 6                    -0.15023   1.48724   1.23161 
 6                    -1.21055   0.92861   0.26212 
 6                     0.71148   0.97347  -0.83654 
 6                    -0.02634  -1.31687   0.09193 
 6                     0.9305   -0.54654  -0.8763 
 6                    -1.3744   -0.59052   0.32807 
 8                    -0.64846   1.28019  -1.01894 
 8                     1.06765   1.47491   0.45281 
 8                    -2.33454  -0.93042  -0.66779 
 8                     0.5861   -1.49256   1.36419 
 8                     2.2915   -0.84013  -0.55679 
 1                    -0.02133   0.87674   2.12679 
 1                    -0.37181   2.52116   1.51251 
 1                    -2.18108   1.42052   0.34543 
 1                     1.30907   1.48761  -1.59419 
 1                    -0.24402  -2.30121  -0.35132 
 1                     0.75889  -0.891    -1.90021 
 1                    -1.72897  -0.87223   1.33003 
 1                    -2.55575  -1.86858  -0.55282 
 1                     1.50948  -1.7354    1.16945 
 1                     2.54471  -0.18582   0.12122 
 
                          Input orientation:                          
 ---------------------------------------------------------------------
 Center     Atomic      Atomic             Coordinates (Angstroms)
 Number     Number       Type             X           Y           Z
 ---------------------------------------------------------------------
      1          6           0       -0.150230    1.487238    1.231605
      2          6           0       -1.210548    0.928606    0.262117
      3          6           0        0.711482    0.973470   -0.836539
      4          6           0       -0.026336   -1.316870    0.091925
      5          6           0        0.930501   -0.546544   -0.876304
      6          6           0       -1.374399   -0.590522    0.328065
      7          8           0       -0.648461    1.280194   -1.018939
      8          8           0        1.067650    1.474911    0.452814
      9          8           0       -2.334537   -0.930422   -0.667793
     10          8           0        0.586096   -1.492563    1.364194
     11          8           0        2.291502   -0.840127   -0.556790
     12          1           0       -0.021333    0.876738    2.126795
     13          1           0       -0.371813    2.521163    1.512509
     14          1           0       -2.181077    1.420521    0.345425
     15          1           0        1.309065    1.487611   -1.594189
     16          1           0       -0.244022   -2.301211   -0.351323
     17          1           0        0.758893   -0.891002   -1.900207
     18          1           0       -1.728972   -0.872225    1.330033
     19          1           0       -2.555747   -1.868580   -0.552817
     20          1           0        1.509478   -1.735399    1.169448
     21          1           0        2.544708   -0.185823    0.121218
 ---------------------------------------------------------------------
                    Distance matrix (angstroms):
                    1          2          3          4          5
     1  C    0.000000
     2  C    1.541509   0.000000
     3  C    2.298635   2.214330   0.000000
     4  C    3.029396   2.544305   2.579162   0.000000
     5  C    3.122103   2.838338   1.536227   1.564099   0.000000
     6  C    2.575279   1.529361   2.855394   1.549393   2.600962
     7  O    2.314314   1.442449   1.405985   2.892369   2.418768
     8  O    1.445648   2.350532   1.428541   3.020114   2.423148
     9  O    3.771470   2.363063   3.596041   2.460550   3.294133
    10  O    3.072291   3.210072   3.307607   1.422888   2.456298
    11  O    3.817989   4.007915   2.421540   2.453668   1.428497
    12  H    1.091187   2.212227   3.054132   2.992096   3.456924
    13  H    1.094078   2.191619   3.014450   4.107056   4.100399
    14  H    2.216778   1.091259   3.156547   3.492919   3.878645
    15  H    3.180354   3.179121   1.093380   3.534316   2.190081
    16  H    4.106921   3.426689   3.445571   1.101264   2.175768
    17  H    4.036183   3.444607   2.147066   2.183240   1.093836
    18  H    2.840630   2.156896   3.749192   2.151648   3.470848
    19  H    4.498020   3.209038   4.339646   2.667957   3.742506
    20  H    3.625449   3.913913   3.463922   1.922224   2.435917
    21  H    3.360771   3.919662   2.371071   2.808984   1.931537
                    6          7          8          9         10
     6  C    0.000000
     7  O    2.416813   0.000000
     8  O    3.200809   2.269143   0.000000
     9  O    1.424475   2.802317   4.314657   0.000000
    10  O    2.393905   3.858968   3.141403   3.602093   0.000000
    11  O    3.779431   3.654138   2.806513   4.628251   2.650332
    12  H    2.686833   3.232910   2.084684   4.052957   2.562053
    13  H    3.477164   2.832802   2.071147   4.529839   4.129114
    14  H    2.166870   2.056719   3.250956   2.564585   4.145021
    15  H    3.900599   2.050815   2.061229   4.470003   4.261004
    16  H    2.160041   3.665480   4.077526   2.519815   2.070267
    17  H    3.099422   2.733381   3.351057   3.330121   3.323860
    18  H    1.099554   3.364236   3.754951   2.088398   2.396983
    19  H    1.950633   3.710766   5.031822   0.970718   3.699662
    20  H    3.214874   4.305757   3.318865   4.335884   0.974438
    21  H    3.945373   3.693981   2.247152   4.998400   2.662465
                   11         12         13         14         15
    11  O    0.000000
    12  H    3.936808   0.000000
    13  H    4.761672   1.790061   0.000000
    14  H    5.092002   2.851924   2.418043   0.000000
    15  H    2.731253   3.998606   3.680374   3.993456   0.000000
    16  H    2.933575   4.036090   5.171604   4.253108   4.279248
    17  H    2.038688   4.466587   4.956611   4.362273   2.460515
    18  H    4.441322   2.570940   3.659270   2.535850   4.832139
    19  H    4.955154   4.597863   5.320243   3.430073   5.223528
    20  H    2.095942   3.175398   4.666398   4.925347   4.250370
    21  H    0.975665   3.425776   4.215395   4.996364   2.696260
                   16         17         18         19         20
    16  H    0.000000
    17  H    2.322406   0.000000
    18  H    2.659706   4.077288   0.000000
    19  H    2.360475   3.709172   2.285039   0.000000
    20  H    2.389069   3.270958   3.355356   4.417011   0.000000
    21  H    3.532022   2.787933   4.494076   5.413006   2.138147
                   21
    21  H    0.000000
 Stoichiometry    C6H10O5
 Framework group  C1[X(C6H10O5)]
 Deg. of freedom    57
 Full point group                 C1      NOp   1
 Largest Abelian subgroup         C1      NOp   1
 Largest concise Abelian subgroup C1      NOp   1
                         Standard orientation:                         
 ---------------------------------------------------------------------
 Center     Atomic      Atomic             Coordinates (Angstroms)
 Number     Number       Type             X           Y           Z
 ---------------------------------------------------------------------
      1          6           0       -0.150231    1.487238    1.231605
      2          6           0       -1.210549    0.928605    0.262117
      3          6           0        0.711481    0.973470   -0.836539
      4          6           0       -0.026335   -1.316870    0.091925
      5          6           0        0.930501   -0.546543   -0.876304
      6          6           0       -1.374399   -0.590523    0.328065
      7          8           0       -0.648462    1.280193   -1.018939
      8          8           0        1.067649    1.474912    0.452814
      9          8           0       -2.334536   -0.930424   -0.667793
     10          8           0        0.586097   -1.492563    1.364194
     11          8           0        2.291503   -0.840125   -0.556790
     12          1           0       -0.021334    0.876738    2.126795
     13          1           0       -0.371815    2.521163    1.512509
     14          1           0       -2.181078    1.420519    0.345425
     15          1           0        1.309064    1.487612   -1.594189
     16          1           0       -0.244020   -2.301211   -0.351323
     17          1           0        0.758894   -0.891002   -1.900207
     18          1           0       -1.728971   -0.872226    1.330033
     19          1           0       -2.555746   -1.868582   -0.552817
     20          1           0        1.509479   -1.735398    1.169448
     21          1           0        2.544708   -0.185821    0.121218
 ---------------------------------------------------------------------
 Rotational constants (GHZ):      1.4864699      1.2611394      0.9946546
 Standard basis: 6-31+G(d,p) (6D, 7F)
 There are   259 symmetry adapted basis functions of A   symmetry.
 Integral buffers will be    131072 words long.
 Raffenetti 2 integral format.
 Two-electron integral symmetry is turned on.
   259 basis functions,   422 primitive gaussians,   259 cartesian basis functions
    43 alpha electrons       43 beta electrons
       nuclear repulsion energy       732.7337803540 Hartrees.
 NAtoms=   21 NActive=   21 NUniq=   21 SFac= 1.00D+00 NAtFMM=   60 NAOKFM=F Big=F
 ------------------------------------------------------------------------------
 Polarizable Continuum Model (PCM)
 =================================
 Model                : C-PCM.
 Atomic radii         : SMD-Coulomb.
 Polarization charges : Total charges.
 Charge compensation  : None.
 Solution method      : Matrix inversion.
 Cavity type          : VdW (van der Waals Surface) (Alpha=1.000).
 Cavity algorithm     : GePol (No added spheres)
                        Default sphere list used, NSphG=   21.
                        Lebedev-Laikov grids with approx.  5.0 points / Ang**2.
                        Smoothing algorithm: Karplus/York (Gamma=1.0000).
                        Polarization charges: spherical gaussians, with
                                              point-specific exponents (IZeta= 3).
                        Self-potential: point-specific (ISelfS= 7).
                        Self-field    : sphere-specific E.n sum rule (ISelfD= 2).
 Solvent              : Water, Eps=  78.355300 Eps(inf)=   1.777849
 ------------------------------------------------------------------------------
 ------------------------------------------------------------------------------
 Atomic radii for non-electrostatic terms: SMD-CDS.
 ------------------------------------------------------------------------------
 Nuclear repulsion after PCM non-electrostatic terms =      732.7386622949 Hartrees.
 One-electron integrals computed using PRISM.
 NBasis=   259 RedAO= T  NBF=   259
 NBsUse=   259 1.00D-06 NBFU=   259
 Harris functional with IExCor=  402 diagonalized for initial guess.
 ExpMin= 4.38D-02 ExpMax= 5.48D+03 ExpMxC= 8.25D+02 IAcc=2 IRadAn=         4 AccDes= 0.00D+00
 HarFok:  IExCor=  402 AccDes= 0.00D+00 IRadAn=         4 IDoV= 1
 ScaDFX=  1.000000  1.000000  1.000000  1.000000
 FoFCou: FMM=F IPFlag=           0 FMFlag=      100000 FMFlg1=           0
         NFxFlg=           0 DoJE=T BraDBF=F KetDBF=T FulRan=T
         Omega=  0.000000  0.000000  1.000000  0.000000  0.000000 ICntrl=     500 IOpCl=  0
         NMat0=    1 NMatS0=    1 NMatT0=    0 NMatD0=    1 NMtDS0=    0 NMtDT0=    0
         I1Cent=           4 NGrid=           0.
 Petite list used in FoFCou.
 Initial guess orbital symmetries:
       Occupied  (A) (A) (A) (A) (A) (A) (A) (A) (A) (A) (A) (A)
                 (A) (A) (A) (A) (A) (A) (A) (A) (A) (A) (A) (A)
                 (A) (A) (A) (A) (A) (A) (A) (A) (A) (A) (A) (A)
                 (A) (A) (A) (A) (A) (A) (A)
       Virtual   (A) (A) (A) (A) (A) (A) (A) (A) (A) (A) (A) (A)
                 (A) (A) (A) (A) (A) (A) (A) (A) (A) (A) (A) (A)
                 (A) (A) (A) (A) (A) (A) (A) (A) (A) (A) (A) (A)
                 (A) (A) (A) (A) (A) (A) (A) (A) (A) (A) (A) (A)
                 (A) (A) (A) (A) (A) (A) (A) (A) (A) (A) (A) (A)
                 (A) (A) (A) (A) (A) (A) (A) (A) (A) (A) (A) (A)
                 (A) (A) (A) (A) (A) (A) (A) (A) (A) (A) (A) (A)
                 (A) (A) (A) (A) (A) (A) (A) (A) (A) (A) (A) (A)
                 (A) (A) (A) (A) (A) (A) (A) (A) (A) (A) (A) (A)
                 (A) (A) (A) (A) (A) (A) (A) (A) (A) (A) (A) (A)
                 (A) (A) (A) (A) (A) (A) (A) (A) (A) (A) (A) (A)
                 (A) (A) (A) (A) (A) (A) (A) (A) (A) (A) (A) (A)
                 (A) (A) (A) (A) (A) (A) (A) (A) (A) (A) (A) (A)
                 (A) (A) (A) (A) (A) (A) (A) (A) (A) (A) (A) (A)
                 (A) (A) (A) (A) (A) (A) (A) (A) (A) (A) (A) (A)
                 (A) (A) (A) (A) (A) (A) (A) (A) (A) (A) (A) (A)
                 (A) (A) (A) (A) (A) (A) (A) (A) (A) (A) (A) (A)
                 (A) (A) (A) (A) (A) (A) (A) (A) (A) (A) (A) (A)
 The electronic state of the initial guess is 1-A.
 Requested convergence on RMS density matrix=1.00D-08 within 128 cycles.
 Requested convergence on MAX density matrix=1.00D-06.
 Requested convergence on             energy=1.00D-06.
 No special actions if energy rises.
 Error on total polarization charges =  0.05683
 SCF Done:  E(RB3LYP) =  -610.805636208     A.U. after   12 cycles
             Convg  =    0.6665D-08             -V/T =  2.0090
 SMD-CDS (non-electrostatic) energy       (kcal/mol) =       3.06
 (included in total energy above)

 **********************************************************************

            Population analysis using the SCF density.

 **********************************************************************

 Orbital symmetries:
       Occupied  (A) (A) (A) (A) (A) (A) (A) (A) (A) (A) (A) (A)
                 (A) (A) (A) (A) (A) (A) (A) (A) (A) (A) (A) (A)
                 (A) (A) (A) (A) (A) (A) (A) (A) (A) (A) (A) (A)
                 (A) (A) (A) (A) (A) (A) (A)
       Virtual   (A) (A) (A) (A) (A) (A) (A) (A) (A) (A) (A) (A)
                 (A) (A) (A) (A) (A) (A) (A) (A) (A) (A) (A) (A)
                 (A) (A) (A) (A) (A) (A) (A) (A) (A) (A) (A) (A)
                 (A) (A) (A) (A) (A) (A) (A) (A) (A) (A) (A) (A)
                 (A) (A) (A) (A) (A) (A) (A) (A) (A) (A) (A) (A)
                 (A) (A) (A) (A) (A) (A) (A) (A) (A) (A) (A) (A)
                 (A) (A) (A) (A) (A) (A) (A) (A) (A) (A) (A) (A)
                 (A) (A) (A) (A) (A) (A) (A) (A) (A) (A) (A) (A)
                 (A) (A) (A) (A) (A) (A) (A) (A) (A) (A) (A) (A)
                 (A) (A) (A) (A) (A) (A) (A) (A) (A) (A) (A) (A)
                 (A) (A) (A) (A) (A) (A) (A) (A) (A) (A) (A) (A)
                 (A) (A) (A) (A) (A) (A) (A) (A) (A) (A) (A) (A)
                 (A) (A) (A) (A) (A) (A) (A) (A) (A) (A) (A) (A)
                 (A) (A) (A) (A) (A) (A) (A) (A) (A) (A) (A) (A)
                 (A) (A) (A) (A) (A) (A) (A) (A) (A) (A) (A) (A)
                 (A) (A) (A) (A) (A) (A) (A) (A) (A) (A) (A) (A)
                 (A) (A) (A) (A) (A) (A) (A) (A) (A) (A) (A) (A)
                 (A) (A) (A) (A) (A) (A) (A) (A) (A) (A) (A) (A)
 The electronic state is 1-A.
 Alpha  occ. eigenvalues --  -19.18493 -19.17812 -19.17645 -19.16985 -19.16545
 Alpha  occ. eigenvalues --  -10.29424 -10.25089 -10.24829 -10.24629 -10.24557
 Alpha  occ. eigenvalues --  -10.23991  -1.11413  -1.05430  -1.04066  -1.02309
 Alpha  occ. eigenvalues --   -1.01198  -0.79504  -0.77433  -0.68143  -0.65866
 Alpha  occ. eigenvalues --   -0.62654  -0.58389  -0.55471  -0.53131  -0.52559
 Alpha  occ. eigenvalues --   -0.49549  -0.48466  -0.47430  -0.45974  -0.44374
 Alpha  occ. eigenvalues --   -0.42632  -0.41325  -0.40523  -0.39234  -0.37785
 Alpha  occ. eigenvalues --   -0.36789  -0.34991  -0.34105  -0.32336  -0.30050
 Alpha  occ. eigenvalues --   -0.28762  -0.28427  -0.26239
 Alpha virt. eigenvalues --    0.00597   0.01179   0.02306   0.02901   0.04183
 Alpha virt. eigenvalues --    0.04966   0.05113   0.05535   0.06286   0.08121
 Alpha virt. eigenvalues --    0.08992   0.09367   0.10058   0.10969   0.11934
 Alpha virt. eigenvalues --    0.12158   0.12452   0.13469   0.14083   0.14527
 Alpha virt. eigenvalues --    0.14903   0.15660   0.16060   0.16820   0.17297
 Alpha virt. eigenvalues --    0.18823   0.19247   0.19413   0.20212   0.20653
 Alpha virt. eigenvalues --    0.21504   0.21609   0.22880   0.23350   0.23773
 Alpha virt. eigenvalues --    0.24511   0.24956   0.25479   0.26148   0.26983
 Alpha virt. eigenvalues --    0.27548   0.28432   0.28875   0.29384   0.30006
 Alpha virt. eigenvalues --    0.30231   0.31217   0.31486   0.32169   0.32717
 Alpha virt. eigenvalues --    0.34253   0.34513   0.35005   0.35931   0.36240
 Alpha virt. eigenvalues --    0.37320   0.37478   0.38352   0.38981   0.40384
 Alpha virt. eigenvalues --    0.41970   0.42166   0.45127   0.46248   0.47093
 Alpha virt. eigenvalues --    0.48562   0.63684   0.65903   0.66911   0.68331
 Alpha virt. eigenvalues --    0.69827   0.70784   0.73579   0.75446   0.76920
 Alpha virt. eigenvalues --    0.78568   0.79720   0.80823   0.83370   0.85425
 Alpha virt. eigenvalues --    0.87716   0.89158   0.95490   0.96352   0.99106
 Alpha virt. eigenvalues --    0.99562   1.01573   1.02771   1.04577   1.07720
 Alpha virt. eigenvalues --    1.07926   1.07983   1.10951   1.11975   1.12621
 Alpha virt. eigenvalues --    1.15278   1.20510   1.20884   1.24528   1.26318
 Alpha virt. eigenvalues --    1.27031   1.28902   1.30033   1.31147   1.32630
 Alpha virt. eigenvalues --    1.33949   1.34592   1.36116   1.38373   1.40918
 Alpha virt. eigenvalues --    1.43961   1.45643   1.45863   1.48649   1.50019
 Alpha virt. eigenvalues --    1.51603   1.54313   1.56225   1.56843   1.59864
 Alpha virt. eigenvalues --    1.61322   1.61952   1.65900   1.67508   1.68270
 Alpha virt. eigenvalues --    1.70540   1.72638   1.74024   1.75268   1.79123
 Alpha virt. eigenvalues --    1.79867   1.83018   1.85105   1.87673   1.88588
 Alpha virt. eigenvalues --    1.88965   1.91877   1.93645   1.97558   1.98473
 Alpha virt. eigenvalues --    2.00374   2.02151   2.04991   2.06646   2.06946
 Alpha virt. eigenvalues --    2.09609   2.12645   2.13333   2.14420   2.17856
 Alpha virt. eigenvalues --    2.18549   2.19069   2.21183   2.24124   2.29092
 Alpha virt. eigenvalues --    2.31770   2.33961   2.36945   2.40176   2.42535
 Alpha virt. eigenvalues --    2.45478   2.47803   2.48652   2.49034   2.51002
 Alpha virt. eigenvalues --    2.55364   2.57040   2.59224   2.61603   2.62046
 Alpha virt. eigenvalues --    2.63010   2.66673   2.67931   2.69722   2.71988
 Alpha virt. eigenvalues --    2.72665   2.72830   2.77918   2.78367   2.79473
 Alpha virt. eigenvalues --    2.82229   2.84401   2.86184   2.87367   2.88104
 Alpha virt. eigenvalues --    2.92069   2.94329   2.96647   2.98770   2.99688
 Alpha virt. eigenvalues --    3.03471   3.06234   3.08886   3.14473   3.21371
 Alpha virt. eigenvalues --    3.35008   3.39626   3.42551   3.46613   3.47351
 Alpha virt. eigenvalues --    3.49101   3.51768   3.54901   3.57767   3.59831
 Alpha virt. eigenvalues --    4.24704   4.31968   4.40409   4.45288   4.50188
 Alpha virt. eigenvalues --    4.51570   4.63344   4.78448   4.89407   4.90554
 Alpha virt. eigenvalues --    4.96200
          Condensed to atoms (all electrons):
              1          2          3          4          5          6
     1  C    5.536352  -0.224568  -0.508598  -0.393303   0.403946   0.214641
     2  C   -0.224568   6.876647  -0.292686   0.704366  -0.339791  -0.899219
     3  C   -0.508598  -0.292686   6.666575   0.438842  -1.112781   0.122414
     4  C   -0.393303   0.704366   0.438842   6.866028  -0.964586  -0.772290
     5  C    0.403946  -0.339791  -1.112781  -0.964586   7.236808   0.154811
     6  C    0.214641  -0.899219   0.122414  -0.772290   0.154811   6.708834
     7  O   -0.022674   0.077812   0.260868  -0.062007  -0.067805  -0.056807
     8  O    0.139842  -0.123640   0.318184   0.029407  -0.164796  -0.020671
     9  O    0.033446  -0.141360  -0.032208  -0.083375   0.038094   0.208421
    10  O    0.008522  -0.078607   0.027721   0.113010  -0.074671   0.028783
    11  O    0.032108  -0.052469  -0.085288  -0.240109   0.320886   0.071408
    12  H    0.484274  -0.182669   0.011641  -0.053967   0.021159   0.080765
    13  H    0.407087  -0.007526  -0.027831   0.001332   0.010833  -0.007979
    14  H   -0.008741   0.359210   0.015874   0.012178   0.000434  -0.040789
    15  H    0.009179   0.040041   0.351972   0.028502  -0.029834  -0.031087
    16  H    0.000085  -0.036740   0.015581   0.300919   0.010120   0.026822
    17  H    0.004657  -0.026227  -0.065660  -0.106251   0.482440   0.029479
    18  H    0.014414  -0.021268  -0.029175  -0.045539   0.038637   0.347260
    19  H   -0.003808   0.008795   0.005061  -0.024366  -0.013767   0.036308
    20  H   -0.000018  -0.007822   0.009599   0.026459  -0.056374   0.016691
    21  H    0.002660   0.000795  -0.039789  -0.025533   0.043045  -0.004055
              7          8          9         10         11         12
     1  C   -0.022674   0.139842   0.033446   0.008522   0.032108   0.484274
     2  C    0.077812  -0.123640  -0.141360  -0.078607  -0.052469  -0.182669
     3  C    0.260868   0.318184  -0.032208   0.027721  -0.085288   0.011641
     4  C   -0.062007   0.029407  -0.083375   0.113010  -0.240109  -0.053967
     5  C   -0.067805  -0.164796   0.038094  -0.074671   0.320886   0.021159
     6  C   -0.056807  -0.020671   0.208421   0.028783   0.071408   0.080765
     7  O    8.342679  -0.050184   0.020132   0.005097   0.005476   0.011137
     8  O   -0.050184   8.440674   0.000524   0.015003  -0.016827  -0.047113
     9  O    0.020132   0.000524   8.373280   0.004342   0.001156   0.000294
    10  O    0.005097   0.015003   0.004342   8.372307   0.009675  -0.002181
    11  O    0.005476  -0.016827   0.001156   0.009675   8.334753   0.000902
    12  H    0.011137  -0.047113   0.000294  -0.002181   0.000902   0.533242
    13  H   -0.000280  -0.046384  -0.000165   0.000652  -0.000244  -0.038614
    14  H   -0.037998   0.006867   0.004247  -0.000427  -0.000001   0.002470
    15  H   -0.042314  -0.045632   0.000428  -0.000781   0.001577  -0.000262
    16  H   -0.001463  -0.000313  -0.009520  -0.042680   0.007148  -0.000026
    17  H    0.001537   0.008915   0.000696   0.006244  -0.053890  -0.000020
    18  H    0.008753  -0.000151  -0.034505  -0.001412  -0.000719   0.000143
    19  H   -0.000956   0.000135   0.242180   0.000320   0.000050  -0.000011
    20  H   -0.000162  -0.002629  -0.000321   0.236325   0.031565   0.000188
    21  H    0.001155   0.027367  -0.000040  -0.002151   0.248064  -0.000286
             13         14         15         16         17         18
     1  C    0.407087  -0.008741   0.009179   0.000085   0.004657   0.014414
     2  C   -0.007526   0.359210   0.040041  -0.036740  -0.026227  -0.021268
     3  C   -0.027831   0.015874   0.351972   0.015581  -0.065660  -0.029175
     4  C    0.001332   0.012178   0.028502   0.300919  -0.106251  -0.045539
     5  C    0.010833   0.000434  -0.029834   0.010120   0.482440   0.038637
     6  C   -0.007979  -0.040789  -0.031087   0.026822   0.029479   0.347260
     7  O   -0.000280  -0.037998  -0.042314  -0.001463   0.001537   0.008753
     8  O   -0.046384   0.006867  -0.045632  -0.000313   0.008915  -0.000151
     9  O   -0.000165   0.004247   0.000428  -0.009520   0.000696  -0.034505
    10  O    0.000652  -0.000427  -0.000781  -0.042680   0.006244  -0.001412
    11  O   -0.000244  -0.000001   0.001577   0.007148  -0.053890  -0.000719
    12  H   -0.038614   0.002470  -0.000262  -0.000026  -0.000020   0.000143
    13  H    0.546441  -0.004390   0.000196   0.000003   0.000012   0.000100
    14  H   -0.004390   0.517330  -0.000043  -0.000146   0.000000  -0.001536
    15  H    0.000196  -0.000043   0.545787  -0.000157  -0.004136   0.000023
    16  H    0.000003  -0.000146  -0.000157   0.587752  -0.004548  -0.003039
    17  H    0.000012   0.000000  -0.004136  -0.004548   0.539967  -0.000150
    18  H    0.000100  -0.001536   0.000023  -0.003039  -0.000150   0.562734
    19  H    0.000004   0.000040   0.000000   0.003896   0.000114  -0.007394
    20  H   -0.000010   0.000010  -0.000007  -0.003690   0.000564   0.000151
    21  H    0.000054   0.000000  -0.000361  -0.000269   0.005461  -0.000005
             19         20         21
     1  C   -0.003808  -0.000018   0.002660
     2  C    0.008795  -0.007822   0.000795
     3  C    0.005061   0.009599  -0.039789
     4  C   -0.024366   0.026459  -0.025533
     5  C   -0.013767  -0.056374   0.043045
     6  C    0.036308   0.016691  -0.004055
     7  O   -0.000956  -0.000162   0.001155
     8  O    0.000135  -0.002629   0.027367
     9  O    0.242180  -0.000321  -0.000040
    10  O    0.000320   0.236325  -0.002151
    11  O    0.000050   0.031565   0.248064
    12  H   -0.000011   0.000188  -0.000286
    13  H    0.000004  -0.000010   0.000054
    14  H    0.000040   0.000010   0.000000
    15  H    0.000000  -0.000007  -0.000361
    16  H    0.003896  -0.003690  -0.000269
    17  H    0.000114   0.000564   0.005461
    18  H   -0.007394   0.000151  -0.000005
    19  H    0.339183  -0.000027   0.000000
    20  H   -0.000027   0.341018  -0.002693
    21  H    0.000000  -0.002693   0.333912
 Mulliken atomic charges:
              1
     1  C   -0.129505
     2  C    0.366925
     3  C   -0.050316
     4  C    0.250284
     5  C    0.063192
     6  C   -0.213740
     7  O   -0.391997
     8  O   -0.468577
     9  O   -0.625743
    10  O   -0.625093
    11  O   -0.615221
    12  H    0.178936
    13  H    0.166709
    14  H    0.175409
    15  H    0.176908
    16  H    0.150262
    17  H    0.180796
    18  H    0.172678
    19  H    0.414243
    20  H    0.411180
    21  H    0.412668
 Sum of Mulliken atomic charges =   0.00000
 Mulliken charges with hydrogens summed into heavy atoms:
              1
     1  C    0.216140
     2  C    0.542334
     3  C    0.126593
     4  C    0.400546
     5  C    0.243988
     6  C   -0.041062
     7  O   -0.391997
     8  O   -0.468577
     9  O   -0.211500
    10  O   -0.213913
    11  O   -0.202553
 Sum of Mulliken charges with hydrogens summed into heavy atoms =   0.00000
 Electronic spatial extent (au):  <R**2>=           1379.5593
 Charge=              0.0000 electrons
 Dipole moment (field-independent basis, Debye):
    X=             -0.8978    Y=             -1.4320    Z=              1.8722  Tot=              2.5222
 Quadrupole moment (field-independent basis, Debye-Ang):
   XX=            -66.8708   YY=            -61.7325   ZZ=            -67.4874
   XY=              4.0395   XZ=             -4.3992   YZ=              4.2033
 Traceless Quadrupole moment (field-independent basis, Debye-Ang):
   XX=             -1.5072   YY=              3.6311   ZZ=             -2.1239
   XY=              4.0395   XZ=             -4.3992   YZ=              4.2033
 Octapole moment (field-independent basis, Debye-Ang**2):
  XXX=              0.4050  YYY=            -17.7090  ZZZ=             -2.4136  XYY=            -18.7733
  XXY=             -6.8733  XXZ=             21.4222  XZZ=              6.0980  YZZ=              6.0354
  YYZ=             -1.4427  XYZ=            -12.5778
 Hexadecapole moment (field-independent basis, Debye-Ang**3):
 XXXX=           -753.2573 YYYY=           -584.8160 ZZZZ=           -362.9410 XXXY=             39.6921
 XXXZ=             23.0150 YYYX=             22.8720 YYYZ=             20.6523 ZZZX=             -7.5518
 ZZZY=             13.2853 XXYY=           -192.4367 XXZZ=           -189.5577 YYZZ=           -165.1379
 XXYZ=            -18.5650 YYXZ=              2.4008 ZZXY=              5.3139
 N-N= 7.327386622949D+02 E-N=-2.895564228194D+03  KE= 6.053516888717D+02

 Test job not archived.
 1\1\GINC-COMPUTE-10-1\SP\RB3LYP\6-31+G(d,p)\C6H10O5\ASAROTTI.IQUIR\16-
 Apr-2019\0\\# B3LYP/6-31+G** test scrf=(pcm,solvent=water,smd,dovacuum
 )\\comment\\0,1\C,0,-0.15023,1.487238,1.231605\C,0,-1.210548,0.928606,
 0.262117\C,0,0.711482,0.97347,-0.836539\C,0,-0.026336,-1.31687,0.09192
 5\C,0,0.930501,-0.546544,-0.876304\C,0,-1.374399,-0.590522,0.328065\O,
 0,-0.648461,1.280194,-1.018939\O,0,1.06765,1.474911,0.452814\O,0,-2.33
 4537,-0.930422,-0.667793\O,0,0.586096,-1.492563,1.364194\O,0,2.291502,
 -0.840127,-0.55679\H,0,-0.021333,0.876738,2.126795\H,0,-0.371813,2.521
 163,1.512509\H,0,-2.181077,1.420521,0.345425\H,0,1.309065,1.487611,-1.
 594189\H,0,-0.244022,-2.301211,-0.351323\H,0,0.758893,-0.891002,-1.900
 207\H,0,-1.728972,-0.872225,1.330033\H,0,-2.555747,-1.86858,-0.552817\
 H,0,1.509478,-1.735399,1.169448\H,0,2.544708,-0.185823,0.121218\\Versi
 on=EM64L-G09RevC.01\State=1-A\HF=-610.8056362\RMSD=6.665e-09\Dipole=-0
 .3532259,-0.5633761,0.7365627\Quadrupole=-1.1205741,2.6996113,-1.57903
 71,3.0032957,-3.2707162,3.1250798\PG=C01 [X(C6H10O5)]\\@


 Standing in the middle of the road is very dangerous;
 you get knocked down by the traffic from both sides.
                                -- Margaret Thatcher
 Job cpu time:  0 days  0 hours 14 minutes  6.0 seconds.
 File lengths (MBytes):  RWF=     56 Int=      0 D2E=      0 Chk=      4 Scr=      1
 Normal termination of Gaussian 09 at Tue Apr 16 02:22:48 2019.
