 Entering Gaussian System, Link 0=g09
 Input=/home/mmarcarino.iquir/NMR/05_SSR_Levo02_OPTB_nmr.gjc
 Output=/home/mmarcarino.iquir/NMR/05_SSR_Levo02_OPTB_nmr.log
 Initial command:
 /share/apps/Gaussian09/EM64T.SSE4.2-enabled/g09/l1.exe /tmp/Gau-59484.inp -scrdir=/tmp/
 Entering Link 1 = /share/apps/Gaussian09/EM64T.SSE4.2-enabled/g09/l1.exe PID=     59485.
  
 Copyright (c) 1988,1990,1992,1993,1995,1998,2003,2009,2011,
            Gaussian, Inc.  All Rights Reserved.
  
 This is part of the Gaussian(R) 09 program.  It is based on
 the Gaussian(R) 03 system (copyright 2003, Gaussian, Inc.),
 the Gaussian(R) 98 system (copyright 1998, Gaussian, Inc.),
 the Gaussian(R) 94 system (copyright 1995, Gaussian, Inc.),
 the Gaussian 92(TM) system (copyright 1992, Gaussian, Inc.),
 the Gaussian 90(TM) system (copyright 1990, Gaussian, Inc.),
 the Gaussian 88(TM) system (copyright 1988, Gaussian, Inc.),
 the Gaussian 86(TM) system (copyright 1986, Carnegie Mellon
 University), and the Gaussian 82(TM) system (copyright 1983,
 Carnegie Mellon University). Gaussian is a federally registered
 trademark of Gaussian, Inc.
  
 This software contains proprietary and confidential information,
 including trade secrets, belonging to Gaussian, Inc.
  
 This software is provided under written license and may be
 used, copied, transmitted, or stored only in accord with that
 written license.
  
 The following legend is applicable only to US Government
 contracts under FAR:
  
                    RESTRICTED RIGHTS LEGEND
  
 Use, reproduction and disclosure by the US Government is
 subject to restrictions as set forth in subparagraphs (a)
 and (c) of the Commercial Computer Software - Restricted
 Rights clause in FAR 52.227-19.
  
 Gaussian, Inc.
 340 Quinnipiac St., Bldg. 40, Wallingford CT 06492
  
  
 ---------------------------------------------------------------
 Warning -- This program may not be used in any manner that
 competes with the business of Gaussian, Inc. or will provide
 assistance to any competitor of Gaussian, Inc.  The licensee
 of this program is prohibited from giving any competitor of
 Gaussian, Inc. access to this program.  By using this program,
 the user acknowledges that Gaussian, Inc. is engaged in the
 business of creating and licensing software in the field of
 computational chemistry and represents and warrants to the
 licensee that it is not a competitor of Gaussian, Inc. and that
 it will not use this program in any manner prohibited above.
 ---------------------------------------------------------------
  

 Cite this work as:
 Gaussian 09, Revision C.01,
 M. J. Frisch, G. W. Trucks, H. B. Schlegel, G. E. Scuseria, 
 M. A. Robb, J. R. Cheeseman, G. Scalmani, V. Barone, B. Mennucci, 
 G. A. Petersson, H. Nakatsuji, M. Caricato, X. Li, H. P. Hratchian, 
 A. F. Izmaylov, J. Bloino, G. Zheng, J. L. Sonnenberg, M. Hada, 
 M. Ehara, K. Toyota, R. Fukuda, J. Hasegawa, M. Ishida, T. Nakajima, 
 Y. Honda, O. Kitao, H. Nakai, T. Vreven, J. A. Montgomery, Jr., 
 J. E. Peralta, F. Ogliaro, M. Bearpark, J. J. Heyd, E. Brothers, 
 K. N. Kudin, V. N. Staroverov, T. Keith, R. Kobayashi, J. Normand, 
 K. Raghavachari, A. Rendell, J. C. Burant, S. S. Iyengar, J. Tomasi, 
 M. Cossi, N. Rega, J. M. Millam, M. Klene, J. E. Knox, J. B. Cross, 
 V. Bakken, C. Adamo, J. Jaramillo, R. Gomperts, R. E. Stratmann, 
 O. Yazyev, A. J. Austin, R. Cammi, C. Pomelli, J. W. Ochterski, 
 R. L. Martin, K. Morokuma, V. G. Zakrzewski, G. A. Voth, 
 P. Salvador, J. J. Dannenberg, S. Dapprich, A. D. Daniels, 
 O. Farkas, J. B. Foresman, J. V. Ortiz, J. Cioslowski, 
 and D. J. Fox, Gaussian, Inc., Wallingford CT, 2010.
 
 ******************************************
 Gaussian 09:  EM64L-G09RevC.01 23-Sep-2011
                12-Apr-2019 
 ******************************************
 %nprocshared=4
 Will use up to    4 processors via shared memory.
 ------------------------------------------------
 # mpw1pw91/6-31+g** nmr scrf=(pcm,solvent=water)
 ------------------------------------------------
 1/38=1/1;
 2/12=2,17=6,18=5,40=1/2;
 3/5=1,6=6,7=111,11=2,16=1,25=1,30=1,70=2201,72=1,74=-7/1,2,8,3;
 4//1;
 5/5=2,38=5,53=1/2;
 8/6=1,10=90,11=11/1;
 10/13=100,45=16/2;
 6/7=2,8=2,9=2,10=2,28=1/1;
 99/9=1/99;
 -------
 comment
 -------
 Charge =  0 Multiplicity = 1
 Symbolic Z-Matrix:
 6                     1.74438  -0.92052  -0.88467 
 6                     0.66818  -1.3749    0.10048 
 6                     1.26458   0.6746    0.72295 
 6                    -1.21304   0.28236   0.43845 
 6                    -0.11316   1.36589   0.5217 
 6                    -0.75401  -0.96316  -0.34255 
 8                     1.07047  -0.61213   1.26648 
 8                     1.87538   0.48329  -0.56623 
 8                    -1.63884  -2.05476  -0.11068 
 8                    -2.40322   0.81633  -0.12426 
 8                    -0.12553   2.18134  -0.64633 
 1                     1.46566  -1.02143  -1.93557 
 1                     2.69717  -1.42817  -0.70175 
 1                     0.70953  -2.43333   0.35936 
 1                     1.94365   1.23787   1.36565 
 1                    -1.45885  -0.04917   1.45176 
 1                    -0.32903   2.0228    1.36967 
 1                    -0.74865  -0.71625  -1.41533 
 1                    -2.52953  -1.72645  -0.3241 
 1                    -2.09236   1.43483  -0.81379 
 1                     0.5348    1.78108  -1.24595 
 
                          Input orientation:                          
 ---------------------------------------------------------------------
 Center     Atomic      Atomic             Coordinates (Angstroms)
 Number     Number       Type             X           Y           Z
 ---------------------------------------------------------------------
      1          6           0        1.744382   -0.920522   -0.884665
      2          6           0        0.668184   -1.374895    0.100479
      3          6           0        1.264575    0.674604    0.722949
      4          6           0       -1.213039    0.282358    0.438449
      5          6           0       -0.113162    1.365890    0.521695
      6          6           0       -0.754007   -0.963158   -0.342545
      7          8           0        1.070470   -0.612130    1.266483
      8          8           0        1.875384    0.483291   -0.566233
      9          8           0       -1.638844   -2.054763   -0.110679
     10          8           0       -2.403224    0.816334   -0.124255
     11          8           0       -0.125533    2.181336   -0.646331
     12          1           0        1.465663   -1.021432   -1.935569
     13          1           0        2.697168   -1.428173   -0.701750
     14          1           0        0.709525   -2.433332    0.359355
     15          1           0        1.943653    1.237869    1.365654
     16          1           0       -1.458852   -0.049168    1.451762
     17          1           0       -0.329032    2.022805    1.369666
     18          1           0       -0.748654   -0.716247   -1.415332
     19          1           0       -2.529533   -1.726445   -0.324101
     20          1           0       -2.092357    1.434832   -0.813787
     21          1           0        0.534803    1.781084   -1.245947
 ---------------------------------------------------------------------
                    Distance matrix (angstroms):
                    1          2          3          4          5
     1  C    0.000000
     2  C    1.528125   0.000000
     3  C    2.314965   2.223420   0.000000
     4  C    3.455993   2.529765   2.524553   0.000000
     5  C    3.264353   2.880942   1.554522   1.546189   0.000000
     6  C    2.556885   1.545453   2.809309   1.540121   2.565552
     7  O    2.275236   1.450245   1.410245   2.588467   2.422449
     8  O    1.445424   2.314021   1.439333   3.253939   2.432464
     9  O    3.651270   2.414371   4.071145   2.438234   3.798483
    10  O    4.560431   3.779621   3.767040   1.420671   2.442058
    11  O    3.629726   3.719475   2.465273   2.442444   1.424567
    12  H    1.091909   2.215040   3.159856   3.809367   3.772286
    13  H    1.094974   2.182472   2.916121   4.417656   4.147476
    14  H    2.215200   1.090420   3.177978   3.328285   3.890663
    15  H    3.124467   3.170808   1.091551   3.425991   2.226914
    16  H    4.059416   2.847420   2.910682   1.094137   2.162937
    17  H    4.247850   3.761601   2.185285   2.162820   1.094163
    18  H    2.557062   2.176908   3.249585   2.156240   2.913969
    19  H    4.385213   3.244881   4.610489   2.519906   4.014568
    20  H    4.502586   4.043641   3.769416   1.915592   2.388614
    21  H    2.981993   3.433782   2.373482   2.852774   1.927901
                    6          7          8          9         10
     6  C    0.000000
     7  O    2.457826   0.000000
     8  O    3.009310   2.281815   0.000000
     9  O    1.424184   3.364245   4.358790   0.000000
    10  O    2.436013   4.005148   4.314249   2.971138   0.000000
    11  O    3.221041   3.590645   2.625536   4.530074   2.706228
    12  H    2.732774   3.252206   2.075366   3.746460   4.650433
    13  H    3.500839   2.680674   2.085039   4.420744   5.602259
    14  H    2.189977   2.066383   3.274543   2.424682   4.525861
    15  H    3.878122   2.048116   2.075147   5.084808   4.614419
    16  H    2.133476   2.597831   3.933567   2.548731   2.030951
    17  H    3.468176   2.985320   3.313195   4.531400   2.826596
    18  H    1.100848   3.242250   3.007563   2.070310   2.598709
    19  H    1.932729   4.090437   4.934051   0.972969   2.553746
    20  H    2.786325   4.303609   4.087748   3.588497   0.977053
    21  H    3.163547   3.510942   1.985808   4.552724   3.289519
                   11         12         13         14         15
    11  O    0.000000
    12  H    3.801547   0.000000
    13  H    4.582496   1.790070   0.000000
    14  H    4.796237   2.798550   2.467187   0.000000
    15  H    3.036403   4.028770   3.456837   4.001678   0.000000
    16  H    3.339892   4.579530   4.879731   3.402859   3.638807
    17  H    2.032434   4.838687   5.035663   4.685775   2.404420
    18  H    3.061965   2.294991   3.590227   2.867783   4.336008
    19  H    4.599326   4.365256   5.248808   3.385011   5.625995
    20  H    2.110381   4.466669   5.581120   4.918282   4.591093
    21  H    0.977642   3.032520   3.907851   4.513183   3.016687
                   16         17         18         19         20
    16  H    0.000000
    17  H    2.361420   0.000000
    18  H    3.028135   3.928702   0.000000
    19  H    2.667078   4.665611   2.320089   0.000000
    20  H    2.781420   2.867489   2.606633   3.228713   0.000000
    21  H    3.821272   2.765153   2.812937   4.747917   2.684888
                   21
    21  H    0.000000
 Stoichiometry    C6H10O5
 Framework group  C1[X(C6H10O5)]
 Deg. of freedom    57
 Full point group                 C1      NOp   1
 Largest Abelian subgroup         C1      NOp   1
 Largest concise Abelian subgroup C1      NOp   1
                         Standard orientation:                         
 ---------------------------------------------------------------------
 Center     Atomic      Atomic             Coordinates (Angstroms)
 Number     Number       Type             X           Y           Z
 ---------------------------------------------------------------------
      1          6           0        1.744382   -0.920521   -0.884665
      2          6           0        0.668185   -1.374895    0.100479
      3          6           0        1.264575    0.674605    0.722949
      4          6           0       -1.213039    0.282357    0.438449
      5          6           0       -0.113163    1.365890    0.521695
      6          6           0       -0.754007   -0.963158   -0.342545
      7          8           0        1.070470   -0.612129    1.266483
      8          8           0        1.875384    0.483292   -0.566233
      9          8           0       -1.638843   -2.054764   -0.110679
     10          8           0       -2.403224    0.816333   -0.124255
     11          8           0       -0.125534    2.181336   -0.646331
     12          1           0        1.465663   -1.021431   -1.935569
     13          1           0        2.697169   -1.428172   -0.701750
     14          1           0        0.709526   -2.433332    0.359355
     15          1           0        1.943652    1.237870    1.365654
     16          1           0       -1.458852   -0.049169    1.451762
     17          1           0       -0.329033    2.022805    1.369666
     18          1           0       -0.748654   -0.716247   -1.415332
     19          1           0       -2.529532   -1.726446   -0.324101
     20          1           0       -2.092358    1.434831   -0.813787
     21          1           0        0.534802    1.781084   -1.245947
 ---------------------------------------------------------------------
 Rotational constants (GHZ):      1.5060792      1.2668547      0.8651912
 Standard basis: 6-31+G(d,p) (6D, 7F)
 There are   259 symmetry adapted basis functions of A   symmetry.
 Integral buffers will be    131072 words long.
 Raffenetti 2 integral format.
 Two-electron integral symmetry is turned on.
   259 basis functions,   422 primitive gaussians,   259 cartesian basis functions
    43 alpha electrons       43 beta electrons
       nuclear repulsion energy       726.2693171532 Hartrees.
 NAtoms=   21 NActive=   21 NUniq=   21 SFac= 1.00D+00 NAtFMM=   60 NAOKFM=F Big=F
 ------------------------------------------------------------------------------
 Polarizable Continuum Model (PCM)
 =================================
 Model                : PCM.
 Atomic radii         : UFF (Universal Force Field).
 Polarization charges : Total charges.
 Charge compensation  : None.
 Solution method      : Matrix inversion.
 Cavity type          : Scaled VdW (van der Waals Surface) (Alpha=1.100).
 Cavity algorithm     : GePol (No added spheres)
                        Default sphere list used, NSphG=   21.
                        Lebedev-Laikov grids with approx.  5.0 points / Ang**2.
                        Smoothing algorithm: Karplus/York (Gamma=1.0000).
                        Polarization charges: spherical gaussians, with
                                              point-specific exponents (IZeta= 3).
                        Self-potential: point-specific (ISelfS= 7).
                        Self-field    : sphere-specific E.n sum rule (ISelfD= 2).
 Solvent              : Water, Eps=  78.355300 Eps(inf)=   1.777849
 ------------------------------------------------------------------------------
 One-electron integrals computed using PRISM.
 NBasis=   259 RedAO= T  NBF=   259
 NBsUse=   259 1.00D-06 NBFU=   259
 Harris functional with IExCor=  908 diagonalized for initial guess.
 ExpMin= 4.38D-02 ExpMax= 5.48D+03 ExpMxC= 8.25D+02 IAcc=2 IRadAn=         4 AccDes= 0.00D+00
 HarFok:  IExCor=  908 AccDes= 0.00D+00 IRadAn=         4 IDoV= 1
 ScaDFX=  1.000000  1.000000  1.000000  1.000000
 FoFCou: FMM=F IPFlag=           0 FMFlag=      100000 FMFlg1=           0
         NFxFlg=           0 DoJE=T BraDBF=F KetDBF=T FulRan=T
         Omega=  0.000000  0.000000  1.000000  0.000000  0.000000 ICntrl=     500 IOpCl=  0
         NMat0=    1 NMatS0=    1 NMatT0=    0 NMatD0=    1 NMtDS0=    0 NMtDT0=    0
         I1Cent=           4 NGrid=           0.
 Petite list used in FoFCou.
 Initial guess orbital symmetries:
       Occupied  (A) (A) (A) (A) (A) (A) (A) (A) (A) (A) (A) (A)
                 (A) (A) (A) (A) (A) (A) (A) (A) (A) (A) (A) (A)
                 (A) (A) (A) (A) (A) (A) (A) (A) (A) (A) (A) (A)
                 (A) (A) (A) (A) (A) (A) (A)
       Virtual   (A) (A) (A) (A) (A) (A) (A) (A) (A) (A) (A) (A)
                 (A) (A) (A) (A) (A) (A) (A) (A) (A) (A) (A) (A)
                 (A) (A) (A) (A) (A) (A) (A) (A) (A) (A) (A) (A)
                 (A) (A) (A) (A) (A) (A) (A) (A) (A) (A) (A) (A)
                 (A) (A) (A) (A) (A) (A) (A) (A) (A) (A) (A) (A)
                 (A) (A) (A) (A) (A) (A) (A) (A) (A) (A) (A) (A)
                 (A) (A) (A) (A) (A) (A) (A) (A) (A) (A) (A) (A)
                 (A) (A) (A) (A) (A) (A) (A) (A) (A) (A) (A) (A)
                 (A) (A) (A) (A) (A) (A) (A) (A) (A) (A) (A) (A)
                 (A) (A) (A) (A) (A) (A) (A) (A) (A) (A) (A) (A)
                 (A) (A) (A) (A) (A) (A) (A) (A) (A) (A) (A) (A)
                 (A) (A) (A) (A) (A) (A) (A) (A) (A) (A) (A) (A)
                 (A) (A) (A) (A) (A) (A) (A) (A) (A) (A) (A) (A)
                 (A) (A) (A) (A) (A) (A) (A) (A) (A) (A) (A) (A)
                 (A) (A) (A) (A) (A) (A) (A) (A) (A) (A) (A) (A)
                 (A) (A) (A) (A) (A) (A) (A) (A) (A) (A) (A) (A)
                 (A) (A) (A) (A) (A) (A) (A) (A) (A) (A) (A) (A)
                 (A) (A) (A) (A) (A) (A) (A) (A) (A) (A) (A) (A)
 The electronic state of the initial guess is 1-A.
 Requested convergence on RMS density matrix=1.00D-08 within 128 cycles.
 Requested convergence on MAX density matrix=1.00D-06.
 Requested convergence on             energy=1.00D-06.
 No special actions if energy rises.
 Error on total polarization charges =  0.01168
 SCF Done:  E(RmPW1PW91) =  -610.647842779     A.U. after   12 cycles
             Convg  =    0.6140D-08             -V/T =  2.0090
 Range of M.O.s used for correlation:     1   259
 NBasis=   259 NAE=    43 NBE=    43 NFC=     0 NFV=     0
 NROrb=    259 NOA=    43 NOB=    43 NVA=   216 NVB=   216

 **** Warning!!: The largest alpha MO coefficient is  0.54951701D+02

 NEqPCM:  Using equilibrium solvation (IEInf=0, Eps=  78.3553, EpsInf=   1.7778)
          Differentiating once with respect to magnetic field using GIAOs.
          Electric field/nuclear overlap derivatives assumed to be zero.
 FoFCou: FMM=F IPFlag=           0 FMFlag=    10101102 FMFlg1=           0
         NFxFlg=    40000000 DoJE=F BraDBF=F KetDBF=T FulRan=T
         Omega=  0.000000  0.000000  1.000000  0.000000  0.000000 ICntrl=    6100 IOpCl=  0
         NMat0=    1 NMatS0=    1 NMatT0=    0 NMatD0=    1 NMtDS0=    0 NMtDT0=    0
         I1Cent=           7 NGrid=        1529.
 Symmetry not used in FoFCou.
          There are     3 degrees of freedom in the 1st order CPHF.  IDoFFX=0.
      3 vectors produced by pass  0 Test12= 3.10D-13 3.33D-08 XBig12= 2.52D+01 1.15D+00.
 AX will form     3 AO Fock derivatives at one time.
      3 vectors produced by pass  1 Test12= 3.10D-13 3.33D-08 XBig12= 5.82D-02 4.51D-02.
      3 vectors produced by pass  2 Test12= 3.10D-13 3.33D-08 XBig12= 1.32D-04 1.83D-03.
      3 vectors produced by pass  3 Test12= 3.10D-13 3.33D-08 XBig12= 5.80D-07 1.20D-04.
      3 vectors produced by pass  4 Test12= 3.10D-13 3.33D-08 XBig12= 2.01D-09 7.80D-06.
      3 vectors produced by pass  5 Test12= 3.10D-13 3.33D-08 XBig12= 6.66D-12 3.44D-07.
 Inverted reduced A of dimension    18 with in-core refinement.
 Calculating GIAO nuclear magnetic shielding tensors.
 SCF GIAO Magnetic shielding tensor (ppm):
      1  C    Isotropic =   125.6973   Anisotropy =    43.7989
   XX=   114.2549   YX=     6.2292   ZX=   -12.3745
   XY=    16.7397   YY=   150.3212   ZY=     4.9248
   XZ=     0.6483   YZ=    13.2542   ZZ=   112.5159
   Eigenvalues:   103.0386   119.1568   154.8966
      2  C    Isotropic =   115.4725   Anisotropy =    45.0571
   XX=   111.8730   YX=    16.0956   ZX=     6.2297
   XY=     6.8017   YY=   112.0491   ZY=    22.5465
   XZ=    10.5164   YZ=    21.5061   ZZ=   122.4955
   Eigenvalues:    93.6254   107.2815   145.5106
      3  C    Isotropic =    96.5493   Anisotropy =    35.0171
   XX=    82.4485   YX=    -5.8766   ZX=   -23.1445
   XY=     3.7957   YY=   102.3190   ZY=    -8.8235
   XZ=   -17.7671   YZ=    -8.7282   ZZ=   104.8802
   Eigenvalues:    69.4313   100.3225   119.8940
      4  C    Isotropic =   123.2176   Anisotropy =    29.5960
   XX=   127.0980   YX=   -15.1635   ZX=     6.1450
   XY=   -11.5084   YY=   125.8675   ZY=     1.1344
   XZ=    13.3049   YZ=    -6.5811   ZZ=   116.6873
   Eigenvalues:   108.8551   117.8494   142.9483
      5  C    Isotropic =   126.8313   Anisotropy =    34.9604
   XX=   120.5553   YX=     2.6733   ZX=     5.1938
   XY=     5.4749   YY=   126.4972   ZY=   -21.0987
   XZ=    -0.4501   YZ=   -18.5918   ZZ=   133.4412
   Eigenvalues:   108.0895   122.2660   150.1382
      6  C    Isotropic =   118.5054   Anisotropy =    23.5962
   XX=   130.1297   YX=    17.4241   ZX=    -7.9597
   XY=    -4.2827   YY=   116.4604   ZY=    -2.3501
   XZ=    -3.1168   YZ=    -2.6920   ZZ=   108.9262
   Eigenvalues:   107.4553   113.8248   134.2362
      7  O    Isotropic =   245.5593   Anisotropy =    60.7284
   XX=   201.2912   YX=    -8.2920   ZX=   -21.3311
   XY=    10.2771   YY=   259.7340   ZY=   -10.9221
   XZ=   -37.8603   YZ=     9.1562   ZZ=   275.6526
   Eigenvalues:   190.9441   259.6888   286.0448
      8  O    Isotropic =   276.0369   Anisotropy =    99.8362
   XX=   209.7180   YX=    25.6495   ZX=   -55.6438
   XY=    19.1390   YY=   321.1164   ZY=    12.0381
   XZ=   -66.7392   YZ=   -26.2500   ZZ=   297.2762
   Eigenvalues:   176.3148   309.2014   342.5943
      9  O    Isotropic =   294.8648   Anisotropy =    66.1113
   XX=   338.3742   YX=     2.4360   ZX=     0.6765
   XY=    -6.3861   YY=   280.3173   ZY=    -1.5896
   XZ=   -13.2990   YZ=   -19.7811   ZZ=   265.9028
   Eigenvalues:   259.6840   285.9713   338.9390
     10  O    Isotropic =   316.8314   Anisotropy =    42.2272
   XX=   302.5292   YX=   -11.1895   ZX=    -6.2814
   XY=   -18.1572   YY=   314.7242   ZY=   -15.0299
   XZ=   -21.1991   YZ=   -21.5785   ZZ=   333.2407
   Eigenvalues:   283.1624   322.3488   344.9828
     11  O    Isotropic =   319.8806   Anisotropy =    79.6462
   XX=   327.0565   YX=   -16.4861   ZX=   -43.1259
   XY=   -32.5820   YY=   311.3924   ZY=    11.4974
   XZ=   -33.9283   YZ=     8.7676   ZZ=   321.1930
   Eigenvalues:   281.6249   305.0389   372.9781
     12  H    Isotropic =    27.6413   Anisotropy =     7.8053
   XX=    25.2205   YX=    -0.2019   ZX=    -0.1417
   XY=    -0.2702   YY=    26.8954   ZY=     4.0684
   XZ=    -1.3944   YZ=     2.7085   ZZ=    30.8081
   Eigenvalues:    24.8346    25.2445    32.8449
     13  H    Isotropic =    27.8047   Anisotropy =    11.1879
   XX=    30.7308   YX=    -4.3623   ZX=    -2.2553
   XY=    -4.9967   YY=    29.7311   ZY=     1.3124
   XZ=    -1.1044   YZ=     0.9440   ZZ=    22.9522
   Eigenvalues:    22.5993    25.5515    35.2633
     14  H    Isotropic =    27.1251   Anisotropy =     6.8024
   XX=    25.9198   YX=    -0.7245   ZX=     0.8374
   XY=     0.2475   YY=    31.6467   ZY=    -0.7966
   XZ=     0.9064   YZ=     0.5475   ZZ=    23.8087
   Eigenvalues:    23.4950    26.2202    31.6600
     15  H    Isotropic =    25.9307   Anisotropy =     8.8942
   XX=    25.8170   YX=     2.6598   ZX=     2.7399
   XY=     2.3347   YY=    25.4615   ZY=     3.3249
   XZ=     3.1179   YZ=     3.4361   ZZ=    26.5135
   Eigenvalues:    22.5663    23.3657    31.8602
     16  H    Isotropic =    28.1627   Anisotropy =     3.8017
   XX=    28.7785   YX=    -1.0497   ZX=    -0.0412
   XY=    -0.9769   YY=    25.6162   ZY=    -1.0199
   XZ=    -1.6636   YZ=    -1.9029   ZZ=    30.0936
   Eigenvalues:    24.8056    28.9854    30.6972
     17  H    Isotropic =    27.6675   Anisotropy =     7.9774
   XX=    23.9124   YX=     0.1764   ZX=    -0.5699
   XY=     0.0901   YY=    28.0022   ZY=     2.5834
   XZ=    -0.9071   YZ=     3.4898   ZZ=    31.0878
   Eigenvalues:    23.7727    26.2440    32.9857
     18  H    Isotropic =    28.1120   Anisotropy =     4.1345
   XX=    28.3977   YX=     2.3662   ZX=    -1.1789
   XY=     3.4143   YY=    26.9493   ZY=    -0.7046
   XZ=     0.2681   YZ=    -0.1956   ZZ=    28.9890
   Eigenvalues:    24.6926    28.7750    30.8683
     19  H    Isotropic =    29.3355   Anisotropy =    18.2840
   XX=    40.5202   YX=    -1.8326   ZX=     4.5754
   XY=    -0.5028   YY=    27.7460   ZY=    -1.6936
   XZ=     4.1529   YZ=    -0.0099   ZZ=    19.7402
   Eigenvalues:    18.8196    27.6620    41.5248
     20  H    Isotropic =    28.7608   Anisotropy =    16.7924
   XX=    28.3577   YX=     2.5303   ZX=    -0.7004
   XY=     3.4480   YY=    28.5950   ZY=    -9.6927
   XZ=    -0.3916   YZ=   -11.2165   ZZ=    29.3297
   Eigenvalues:    18.1840    28.1427    39.9557
     21  H    Isotropic =    28.8358   Anisotropy =    18.1772
   XX=    30.3773   YX=    -8.1191   ZX=    -7.3467
   XY=    -7.7184   YY=    26.2235   ZY=     0.7609
   XZ=    -8.9617   YZ=    -0.0248   ZZ=    29.9067
   Eigenvalues:    17.8401    27.7134    40.9540
 End of Minotr Frequency-dependent properties file   721 does not exist.
 End of Minotr Frequency-dependent properties file   722 does not exist.

 **********************************************************************

            Population analysis using the SCF density.

 **********************************************************************

 Orbital symmetries:
       Occupied  (A) (A) (A) (A) (A) (A) (A) (A) (A) (A) (A) (A)
                 (A) (A) (A) (A) (A) (A) (A) (A) (A) (A) (A) (A)
                 (A) (A) (A) (A) (A) (A) (A) (A) (A) (A) (A) (A)
                 (A) (A) (A) (A) (A) (A) (A)
       Virtual   (A) (A) (A) (A) (A) (A) (A) (A) (A) (A) (A) (A)
                 (A) (A) (A) (A) (A) (A) (A) (A) (A) (A) (A) (A)
                 (A) (A) (A) (A) (A) (A) (A) (A) (A) (A) (A) (A)
                 (A) (A) (A) (A) (A) (A) (A) (A) (A) (A) (A) (A)
                 (A) (A) (A) (A) (A) (A) (A) (A) (A) (A) (A) (A)
                 (A) (A) (A) (A) (A) (A) (A) (A) (A) (A) (A) (A)
                 (A) (A) (A) (A) (A) (A) (A) (A) (A) (A) (A) (A)
                 (A) (A) (A) (A) (A) (A) (A) (A) (A) (A) (A) (A)
                 (A) (A) (A) (A) (A) (A) (A) (A) (A) (A) (A) (A)
                 (A) (A) (A) (A) (A) (A) (A) (A) (A) (A) (A) (A)
                 (A) (A) (A) (A) (A) (A) (A) (A) (A) (A) (A) (A)
                 (A) (A) (A) (A) (A) (A) (A) (A) (A) (A) (A) (A)
                 (A) (A) (A) (A) (A) (A) (A) (A) (A) (A) (A) (A)
                 (A) (A) (A) (A) (A) (A) (A) (A) (A) (A) (A) (A)
                 (A) (A) (A) (A) (A) (A) (A) (A) (A) (A) (A) (A)
                 (A) (A) (A) (A) (A) (A) (A) (A) (A) (A) (A) (A)
                 (A) (A) (A) (A) (A) (A) (A) (A) (A) (A) (A) (A)
                 (A) (A) (A) (A) (A) (A) (A) (A) (A) (A) (A) (A)
 The electronic state is 1-A.
 Alpha  occ. eigenvalues --  -19.28347 -19.28180 -19.26852 -19.26335 -19.26164
 Alpha  occ. eigenvalues --  -10.36715 -10.32268 -10.31610 -10.31382 -10.31190
 Alpha  occ. eigenvalues --  -10.30965  -1.15055  -1.08657  -1.07298  -1.05408
 Alpha  occ. eigenvalues --   -1.04493  -0.82704  -0.80698  -0.70971  -0.68644
 Alpha  occ. eigenvalues --   -0.64983  -0.61005  -0.58353  -0.56328  -0.53669
 Alpha  occ. eigenvalues --   -0.52164  -0.50774  -0.49960  -0.48389  -0.46371
 Alpha  occ. eigenvalues --   -0.44062  -0.43843  -0.42155  -0.40401  -0.39398
 Alpha  occ. eigenvalues --   -0.37634  -0.37456  -0.36774  -0.33586  -0.32695
 Alpha  occ. eigenvalues --   -0.30932  -0.29646  -0.27892
 Alpha virt. eigenvalues --    0.00678   0.01401   0.02078   0.02469   0.04231
 Alpha virt. eigenvalues --    0.04319   0.04773   0.05293   0.05817   0.08168
 Alpha virt. eigenvalues --    0.09052   0.09280   0.09675   0.10399   0.11358
 Alpha virt. eigenvalues --    0.11970   0.12347   0.13143   0.13512   0.13773
 Alpha virt. eigenvalues --    0.15425   0.15933   0.16134   0.16543   0.17358
 Alpha virt. eigenvalues --    0.18025   0.18264   0.19046   0.20096   0.20750
 Alpha virt. eigenvalues --    0.21093   0.21642   0.22830   0.23179   0.23952
 Alpha virt. eigenvalues --    0.24611   0.25334   0.25943   0.26543   0.27706
 Alpha virt. eigenvalues --    0.28284   0.28697   0.29741   0.29935   0.30657
 Alpha virt. eigenvalues --    0.30992   0.31430   0.32444   0.33166   0.33734
 Alpha virt. eigenvalues --    0.35006   0.35500   0.35793   0.35870   0.36770
 Alpha virt. eigenvalues --    0.37324   0.38323   0.39390   0.40137   0.40709
 Alpha virt. eigenvalues --    0.41545   0.42318   0.43154   0.44347   0.45596
 Alpha virt. eigenvalues --    0.48832   0.64092   0.67018   0.68519   0.70799
 Alpha virt. eigenvalues --    0.72117   0.72270   0.74327   0.77112   0.79092
 Alpha virt. eigenvalues --    0.79498   0.80428   0.82254   0.83810   0.86405
 Alpha virt. eigenvalues --    0.87684   0.88998   0.93812   0.94909   0.98441
 Alpha virt. eigenvalues --    0.99339   1.03768   1.04350   1.05004   1.06677
 Alpha virt. eigenvalues --    1.07449   1.08805   1.10560   1.11814   1.15622
 Alpha virt. eigenvalues --    1.18937   1.22477   1.24094   1.27119   1.27377
 Alpha virt. eigenvalues --    1.28222   1.30872   1.32291   1.33260   1.34018
 Alpha virt. eigenvalues --    1.35125   1.36835   1.38326   1.38845   1.41554
 Alpha virt. eigenvalues --    1.42012   1.43661   1.46474   1.47406   1.50265
 Alpha virt. eigenvalues --    1.52615   1.55253   1.56760   1.58413   1.59891
 Alpha virt. eigenvalues --    1.61730   1.63572   1.64688   1.65597   1.67181
 Alpha virt. eigenvalues --    1.69170   1.73065   1.76221   1.76954   1.79193
 Alpha virt. eigenvalues --    1.80463   1.82234   1.84806   1.85831   1.87455
 Alpha virt. eigenvalues --    1.88124   1.90991   1.95070   1.96530   1.97527
 Alpha virt. eigenvalues --    1.99465   2.02268   2.04331   2.05732   2.08169
 Alpha virt. eigenvalues --    2.10156   2.12265   2.12416   2.15536   2.17066
 Alpha virt. eigenvalues --    2.20064   2.21930   2.25715   2.27711   2.31726
 Alpha virt. eigenvalues --    2.34317   2.35308   2.40668   2.41558   2.42647
 Alpha virt. eigenvalues --    2.45534   2.47692   2.50067   2.51146   2.53023
 Alpha virt. eigenvalues --    2.54574   2.57051   2.59437   2.62120   2.63252
 Alpha virt. eigenvalues --    2.64616   2.66883   2.67603   2.69787   2.70203
 Alpha virt. eigenvalues --    2.72057   2.74627   2.75905   2.76516   2.79788
 Alpha virt. eigenvalues --    2.80741   2.85919   2.88058   2.90079   2.91482
 Alpha virt. eigenvalues --    2.94989   2.95848   2.98294   3.02469   3.03193
 Alpha virt. eigenvalues --    3.05161   3.08522   3.13488   3.16142   3.23988
 Alpha virt. eigenvalues --    3.34036   3.40582   3.42981   3.45045   3.49651
 Alpha virt. eigenvalues --    3.51748   3.52912   3.56533   3.58787   3.60468
 Alpha virt. eigenvalues --    4.27202   4.32783   4.37623   4.45841   4.54144
 Alpha virt. eigenvalues --    4.59026   4.64455   4.71985   4.83578   4.96501
 Alpha virt. eigenvalues --    5.03539
          Condensed to atoms (all electrons):
              1          2          3          4          5          6
     1  C    5.580981  -0.009934  -0.213574   0.116903   0.031422  -0.317461
     2  C   -0.009934   6.568281  -0.570948  -0.040424   0.257405  -0.592440
     3  C   -0.213574  -0.570948   6.626570  -0.205693  -0.595951   0.286911
     4  C    0.116903  -0.040424  -0.205693   6.618945  -0.451246  -0.401300
     5  C    0.031422   0.257405  -0.595951  -0.451246   6.744140  -0.315317
     6  C   -0.317461  -0.592440   0.286911  -0.401300  -0.315317   7.075146
     7  O   -0.024368   0.171609   0.290740   0.041261  -0.169422  -0.186425
     8  O    0.123925  -0.140915   0.223870   0.023103  -0.219621   0.148196
     9  O    0.043467  -0.121817  -0.022461  -0.129789   0.057901   0.256781
    10  O    0.003891   0.054381   0.012193   0.305221  -0.040175  -0.212780
    11  O    0.010732  -0.033406  -0.019655  -0.151243   0.245684   0.011073
    12  H    0.462628  -0.105989   0.014519   0.000842   0.010701  -0.009732
    13  H    0.371574  -0.010911  -0.014968   0.000188   0.003705   0.024785
    14  H    0.017859   0.296783   0.009991   0.012740  -0.003573   0.008861
    15  H    0.004353   0.015904   0.332374   0.022683  -0.016964   0.012374
    16  H    0.003496  -0.001047  -0.004760   0.462675  -0.046288  -0.084926
    17  H   -0.005508  -0.024998   0.011233  -0.013734   0.304203   0.065949
    18  H    0.027463  -0.105934  -0.012738  -0.038869   0.036483   0.385349
    19  H   -0.007594   0.027738  -0.000678  -0.041502   0.016259   0.009305
    20  H    0.001201   0.000894   0.020295   0.060202  -0.070853  -0.040244
    21  H   -0.000092  -0.002160  -0.047694  -0.010232   0.010748   0.025237
              7          8          9         10         11         12
     1  C   -0.024368   0.123925   0.043467   0.003891   0.010732   0.462628
     2  C    0.171609  -0.140915  -0.121817   0.054381  -0.033406  -0.105989
     3  C    0.290740   0.223870  -0.022461   0.012193  -0.019655   0.014519
     4  C    0.041261   0.023103  -0.129789   0.305221  -0.151243   0.000842
     5  C   -0.169422  -0.219621   0.057901  -0.040175   0.245684   0.010701
     6  C   -0.186425   0.148196   0.256781  -0.212780   0.011073  -0.009732
     7  O    8.327893  -0.078640   0.016720   0.001998   0.012789   0.012353
     8  O   -0.078640   8.463815  -0.003919  -0.007244  -0.014413  -0.057092
     9  O    0.016720  -0.003919   8.270676  -0.011798  -0.002954   0.001017
    10  O    0.001998  -0.007244  -0.011798   8.262359  -0.026909   0.000238
    11  O    0.012789  -0.014413  -0.002954  -0.026909   8.287059   0.000705
    12  H    0.012353  -0.057092   0.001017   0.000238   0.000705   0.512632
    13  H   -0.007157  -0.037450  -0.000512  -0.000028  -0.000563  -0.032814
    14  H   -0.032457   0.010458  -0.002349  -0.000454   0.000188   0.001574
    15  H   -0.053285  -0.031757  -0.000005  -0.000663   0.001710  -0.000238
    16  H    0.004899  -0.001171  -0.003978  -0.059261   0.009644   0.000000
    17  H   -0.000656   0.006928  -0.001105  -0.001387  -0.048692   0.000000
    18  H    0.010881  -0.004778  -0.042191  -0.003840   0.003359   0.002001
    19  H   -0.001482   0.000140   0.235097   0.013253  -0.000198  -0.000008
    20  H    0.000355  -0.000620   0.000463   0.248834   0.031341  -0.000007
    21  H    0.000438   0.032924  -0.000062  -0.000160   0.248401  -0.000015
             13         14         15         16         17         18
     1  C    0.371574   0.017859   0.004353   0.003496  -0.005508   0.027463
     2  C   -0.010911   0.296783   0.015904  -0.001047  -0.024998  -0.105934
     3  C   -0.014968   0.009991   0.332374  -0.004760   0.011233  -0.012738
     4  C    0.000188   0.012740   0.022683   0.462675  -0.013734  -0.038869
     5  C    0.003705  -0.003573  -0.016964  -0.046288   0.304203   0.036483
     6  C    0.024785   0.008861   0.012374  -0.084926   0.065949   0.385349
     7  O   -0.007157  -0.032457  -0.053285   0.004899  -0.000656   0.010881
     8  O   -0.037450   0.010458  -0.031757  -0.001171   0.006928  -0.004778
     9  O   -0.000512  -0.002349  -0.000005  -0.003978  -0.001105  -0.042191
    10  O   -0.000028  -0.000454  -0.000663  -0.059261  -0.001387  -0.003840
    11  O   -0.000563   0.000188   0.001710   0.009644  -0.048692   0.003359
    12  H   -0.032814   0.001574  -0.000238   0.000000   0.000000   0.002001
    13  H    0.521194  -0.002601   0.000616   0.000003   0.000004   0.000243
    14  H   -0.002601   0.479036   0.000016  -0.000045   0.000012   0.001947
    15  H    0.000616   0.000016   0.522200  -0.000145  -0.004527   0.000010
    16  H    0.000003  -0.000045  -0.000145   0.517525  -0.005027   0.004208
    17  H    0.000004   0.000012  -0.004527  -0.005027   0.525523  -0.000223
    18  H    0.000243   0.001947   0.000010   0.004208  -0.000223   0.563380
    19  H    0.000004   0.000162   0.000000  -0.000622   0.000001  -0.004970
    20  H    0.000000  -0.000002  -0.000017   0.006000  -0.000317   0.001745
    21  H    0.000068  -0.000012   0.000295  -0.000212   0.005170  -0.000569
             19         20         21
     1  C   -0.007594   0.001201  -0.000092
     2  C    0.027738   0.000894  -0.002160
     3  C   -0.000678   0.020295  -0.047694
     4  C   -0.041502   0.060202  -0.010232
     5  C    0.016259  -0.070853   0.010748
     6  C    0.009305  -0.040244   0.025237
     7  O   -0.001482   0.000355   0.000438
     8  O    0.000140  -0.000620   0.032924
     9  O    0.235097   0.000463  -0.000062
    10  O    0.013253   0.248834  -0.000160
    11  O   -0.000198   0.031341   0.248401
    12  H   -0.000008  -0.000007  -0.000015
    13  H    0.000004   0.000000   0.000068
    14  H    0.000162  -0.000002  -0.000012
    15  H    0.000000  -0.000017   0.000295
    16  H   -0.000622   0.006000  -0.000212
    17  H    0.000001  -0.000317   0.005170
    18  H   -0.004970   0.001745  -0.000569
    19  H    0.373552  -0.000046  -0.000001
    20  H   -0.000046   0.353975  -0.001462
    21  H   -0.000001  -0.001462   0.333099
 Mulliken atomic charges:
              1
     1  C   -0.221362
     2  C    0.367927
     3  C   -0.119574
     4  C   -0.180731
     5  C    0.210761
     6  C   -0.149343
     7  O   -0.338042
     8  O   -0.435739
     9  O   -0.539181
    10  O   -0.537669
    11  O   -0.564652
    12  H    0.186683
    13  H    0.184620
    14  H    0.201867
    15  H    0.195068
    16  H    0.199033
    17  H    0.187151
    18  H    0.177043
    19  H    0.381589
    20  H    0.388263
    21  H    0.406290
 Sum of Mulliken atomic charges =   0.00000
 Mulliken charges with hydrogens summed into heavy atoms:
              1
     1  C    0.149941
     2  C    0.569794
     3  C    0.075493
     4  C    0.018302
     5  C    0.397911
     6  C    0.027700
     7  O   -0.338042
     8  O   -0.435739
     9  O   -0.157592
    10  O   -0.149406
    11  O   -0.158362
 Sum of Mulliken charges with hydrogens summed into heavy atoms =   0.00000
 Electronic spatial extent (au):  <R**2>=           1442.5759
 Charge=              0.0000 electrons
 Dipole moment (field-independent basis, Debye):
    X=              1.9838    Y=             -0.6458    Z=             -1.7345  Tot=              2.7131
 Quadrupole moment (field-independent basis, Debye-Ang):
   XX=            -68.3670   YY=            -70.9376   ZZ=            -61.2702
   XY=             -1.4389   XZ=              0.8119   YZ=              5.1400
 Traceless Quadrupole moment (field-independent basis, Debye-Ang):
   XX=             -1.5087   YY=             -4.0793   ZZ=              5.5880
   XY=             -1.4389   XZ=              0.8119   YZ=              5.1400
 Octapole moment (field-independent basis, Debye-Ang**2):
  XXX=              3.5755  YYY=             -2.0465  ZZZ=            -11.4639  XYY=             12.9031
  XXY=            -12.1955  XXZ=             -5.9711  XZZ=             -3.1079  YZZ=              8.7664
  YYZ=              2.5590  XYZ=              6.7361
 Hexadecapole moment (field-independent basis, Debye-Ang**3):
 XXXX=           -849.5766 YYYY=           -763.5240 ZZZZ=           -245.7814 XXXY=             31.8799
 XXXZ=             25.6633 YYYX=            -26.7040 YYYZ=              3.9074 ZZZX=             -5.5593
 ZZZY=              0.7620 XXYY=           -240.3374 XXZZ=           -172.5684 YYZZ=           -148.2277
 XXYZ=              8.1636 YYXZ=              6.1225 ZZXY=              2.9031
 N-N= 7.262693171532D+02 E-N=-2.881991235412D+03  KE= 6.052130061808D+02
 1\1\GINC-COMPUTE-8-6\SP\RmPW1PW91\6-31+G(d,p)\C6H10O5\MMARCARINO.IQUIR
 \12-Apr-2019\0\\# mpw1pw91/6-31+g** nmr scrf=(pcm,solvent=water)\\comm
 ent\\0,1\C,0,1.744382,-0.920522,-0.884665\C,0,0.668184,-1.374895,0.100
 479\C,0,1.264575,0.674604,0.722949\C,0,-1.213039,0.282358,0.438449\C,0
 ,-0.113162,1.36589,0.521695\C,0,-0.754007,-0.963158,-0.342545\O,0,1.07
 047,-0.61213,1.266483\O,0,1.875384,0.483291,-0.566233\O,0,-1.638844,-2
 .054763,-0.110679\O,0,-2.403224,0.816334,-0.124255\O,0,-0.125533,2.181
 336,-0.646331\H,0,1.465663,-1.021432,-1.935569\H,0,2.697168,-1.428173,
 -0.70175\H,0,0.709525,-2.433332,0.359355\H,0,1.943653,1.237869,1.36565
 4\H,0,-1.458852,-0.049168,1.451762\H,0,-0.329032,2.022805,1.369666\H,0
 ,-0.748654,-0.716247,-1.415332\H,0,-2.529533,-1.726445,-0.324101\H,0,-
 2.092357,1.434832,-0.813787\H,0,0.534803,1.781084,-1.245947\\Version=E
 M64L-G09RevC.01\State=1-A\HF=-610.6478428\RMSD=6.140e-09\Dipole=0.7804
 857,-0.254092,-0.6824071\Quadrupole=-1.1217047,-3.0328663,4.1545711,-1
 .0698045,0.6036197,3.8214947\PG=C01 [X(C6H10O5)]\\@


 BULLDOZER: SOMEONE WHO SLEEPS THROUGH SPEECHES.
 Job cpu time:  0 days  0 hours 21 minutes 15.5 seconds.
 File lengths (MBytes):  RWF=     83 Int=      0 D2E=      0 Chk=      5 Scr=      1
 Normal termination of Gaussian 09 at Fri Apr 12 11:41:29 2019.
