 Entering Gaussian System, Link 0=g09
 Input=/home/asarotti.iquir/SCF3/05_SSR_Levo16_OPTB_energy_b3lyp_smd.gjc
 Output=/home/asarotti.iquir/SCF3/05_SSR_Levo16_OPTB_energy_b3lyp_smd.log
 Initial command:
 /share/apps/Gaussian09/EM64T.SSE4.2-enabled/g09/l1.exe /tmp/Gau-26467.inp -scrdir=/tmp/
 Entering Link 1 = /share/apps/Gaussian09/EM64T.SSE4.2-enabled/g09/l1.exe PID=     26468.
  
 Copyright (c) 1988,1990,1992,1993,1995,1998,2003,2009,2011,
            Gaussian, Inc.  All Rights Reserved.
  
 This is part of the Gaussian(R) 09 program.  It is based on
 the Gaussian(R) 03 system (copyright 2003, Gaussian, Inc.),
 the Gaussian(R) 98 system (copyright 1998, Gaussian, Inc.),
 the Gaussian(R) 94 system (copyright 1995, Gaussian, Inc.),
 the Gaussian 92(TM) system (copyright 1992, Gaussian, Inc.),
 the Gaussian 90(TM) system (copyright 1990, Gaussian, Inc.),
 the Gaussian 88(TM) system (copyright 1988, Gaussian, Inc.),
 the Gaussian 86(TM) system (copyright 1986, Carnegie Mellon
 University), and the Gaussian 82(TM) system (copyright 1983,
 Carnegie Mellon University). Gaussian is a federally registered
 trademark of Gaussian, Inc.
  
 This software contains proprietary and confidential information,
 including trade secrets, belonging to Gaussian, Inc.
  
 This software is provided under written license and may be
 used, copied, transmitted, or stored only in accord with that
 written license.
  
 The following legend is applicable only to US Government
 contracts under FAR:
  
                    RESTRICTED RIGHTS LEGEND
  
 Use, reproduction and disclosure by the US Government is
 subject to restrictions as set forth in subparagraphs (a)
 and (c) of the Commercial Computer Software - Restricted
 Rights clause in FAR 52.227-19.
  
 Gaussian, Inc.
 340 Quinnipiac St., Bldg. 40, Wallingford CT 06492
  
  
 ---------------------------------------------------------------
 Warning -- This program may not be used in any manner that
 competes with the business of Gaussian, Inc. or will provide
 assistance to any competitor of Gaussian, Inc.  The licensee
 of this program is prohibited from giving any competitor of
 Gaussian, Inc. access to this program.  By using this program,
 the user acknowledges that Gaussian, Inc. is engaged in the
 business of creating and licensing software in the field of
 computational chemistry and represents and warrants to the
 licensee that it is not a competitor of Gaussian, Inc. and that
 it will not use this program in any manner prohibited above.
 ---------------------------------------------------------------
  

 Cite this work as:
 Gaussian 09, Revision C.01,
 M. J. Frisch, G. W. Trucks, H. B. Schlegel, G. E. Scuseria, 
 M. A. Robb, J. R. Cheeseman, G. Scalmani, V. Barone, B. Mennucci, 
 G. A. Petersson, H. Nakatsuji, M. Caricato, X. Li, H. P. Hratchian, 
 A. F. Izmaylov, J. Bloino, G. Zheng, J. L. Sonnenberg, M. Hada, 
 M. Ehara, K. Toyota, R. Fukuda, J. Hasegawa, M. Ishida, T. Nakajima, 
 Y. Honda, O. Kitao, H. Nakai, T. Vreven, J. A. Montgomery, Jr., 
 J. E. Peralta, F. Ogliaro, M. Bearpark, J. J. Heyd, E. Brothers, 
 K. N. Kudin, V. N. Staroverov, T. Keith, R. Kobayashi, J. Normand, 
 K. Raghavachari, A. Rendell, J. C. Burant, S. S. Iyengar, J. Tomasi, 
 M. Cossi, N. Rega, J. M. Millam, M. Klene, J. E. Knox, J. B. Cross, 
 V. Bakken, C. Adamo, J. Jaramillo, R. Gomperts, R. E. Stratmann, 
 O. Yazyev, A. J. Austin, R. Cammi, C. Pomelli, J. W. Ochterski, 
 R. L. Martin, K. Morokuma, V. G. Zakrzewski, G. A. Voth, 
 P. Salvador, J. J. Dannenberg, S. Dapprich, A. D. Daniels, 
 O. Farkas, J. B. Foresman, J. V. Ortiz, J. Cioslowski, 
 and D. J. Fox, Gaussian, Inc., Wallingford CT, 2010.
 
 ******************************************
 Gaussian 09:  EM64L-G09RevC.01 23-Sep-2011
                15-Apr-2019 
 ******************************************
 %nprocshared=4
 Will use up to    4 processors via shared memory.
 -----------------------------------------------------------
 # B3LYP/6-31+G** test scrf=(pcm,solvent=water,smd,dovacuum)
 -----------------------------------------------------------
 1/38=1/1;
 2/12=2,17=6,18=5,40=1/2;
 3/5=1,6=6,7=111,11=2,16=1,25=1,30=1,70=32101,72=1,74=-5/1,2,3;
 4//1;
 5/5=2,38=5,53=1/2;
 6/7=2,8=2,9=2,10=2,28=1/1;
 99/5=1,9=1/99;
 -------
 comment
 -------
 Charge =  0 Multiplicity = 1
 Symbolic Z-Matrix:
 6                     1.65579  -1.08157  -0.86316 
 6                     0.50751  -1.42054   0.09017 
 6                     1.3123    0.54044   0.7546 
 6                    -1.17295   0.4363    0.40514 
 6                     0.03534   1.3966    0.46519 
 6                    -0.8597   -0.85043  -0.37427 
 8                     0.95638  -0.72016   1.27728 
 8                     1.97879   0.27697  -0.49408 
 8                    -1.93867  -1.77842  -0.25466 
 8                    -2.29789   1.10523  -0.13964 
 8                     0.20876   2.17336  -0.70599 
 1                     1.38344  -1.11172  -1.92057 
 1                     2.52594  -1.72213  -0.68665 
 1                     0.43387  -2.48222   0.3311 
 1                     2.01112   1.02751   1.43665 
 1                    -1.37766   0.13409   1.44479 
 1                    -0.12948   2.09589   1.292 
 1                    -0.82606  -0.61584  -1.44283 
 1                    -2.02745  -2.0164    0.68459 
 1                    -2.98672   0.4237   -0.2269 
 1                     0.86424   1.68653  -1.24148 
 
                          Input orientation:                          
 ---------------------------------------------------------------------
 Center     Atomic      Atomic             Coordinates (Angstroms)
 Number     Number       Type             X           Y           Z
 ---------------------------------------------------------------------
      1          6           0        1.655788   -1.081575   -0.863156
      2          6           0        0.507510   -1.420539    0.090167
      3          6           0        1.312302    0.540439    0.754597
      4          6           0       -1.172947    0.436302    0.405143
      5          6           0        0.035339    1.396603    0.465191
      6          6           0       -0.859698   -0.850429   -0.374274
      7          8           0        0.956376   -0.720162    1.277284
      8          8           0        1.978793    0.276972   -0.494079
      9          8           0       -1.938665   -1.778422   -0.254664
     10          8           0       -2.297888    1.105227   -0.139642
     11          8           0        0.208758    2.173358   -0.705989
     12          1           0        1.383435   -1.111718   -1.920573
     13          1           0        2.525940   -1.722125   -0.686651
     14          1           0        0.433867   -2.482224    0.331104
     15          1           0        2.011125    1.027506    1.436646
     16          1           0       -1.377656    0.134092    1.444793
     17          1           0       -0.129477    2.095893    1.291999
     18          1           0       -0.826064   -0.615841   -1.442829
     19          1           0       -2.027445   -2.016397    0.684592
     20          1           0       -2.986719    0.423697   -0.226895
     21          1           0        0.864236    1.686532   -1.241480
 ---------------------------------------------------------------------
                    Distance matrix (angstroms):
                    1          2          3          4          5
     1  C    0.000000
     2  C    1.530446   0.000000
     3  C    2.316471   2.221394   0.000000
     4  C    3.451706   2.524085   2.511857   0.000000
     5  C    3.245262   2.880951   1.564419   1.544584   0.000000
     6  C    2.572956   1.552414   2.815395   1.536650   2.560263
     7  O    2.280631   1.449571   1.410319   2.575278   2.447141
     8  O    1.444368   2.321112   1.439728   3.281379   2.439423
     9  O    3.711597   2.496149   4.118800   2.434476   3.807318
    10  O    4.575711   3.781873   3.761930   1.417654   2.427894
    11  O    3.565556   3.693130   2.453069   2.482154   1.416010
    12  H    1.092344   2.214879   3.145031   3.786873   3.714957
    13  H    1.094816   2.183680   2.944369   4.419569   4.154070
    14  H    2.209336   1.091169   3.176080   3.332436   3.901551
    15  H    3.140633   3.172820   1.091228   3.398799   2.232417
    16  H    4.000782   2.793875   2.806664   1.101866   2.133098
    17  H    4.234167   3.770338   2.187913   2.151647   1.095346
    18  H    2.590853   2.185414   3.276931   2.154607   2.903874
    19  H    4.103123   2.671027   4.206688   2.612277   3.993968
    20  H    4.921742   3.963757   4.411183   1.920781   3.249364
    21  H    2.903808   3.399180   2.344913   2.902509   1.919337
                    6          7          8          9         10
     6  C    0.000000
     7  O    2.458198   0.000000
     8  O    3.056537   2.275377   0.000000
     9  O    1.428162   3.442098   4.430400   0.000000
    10  O    2.438859   3.991235   4.370541   2.908213   0.000000
    11  O    3.224116   3.586748   2.602731   4.520142   2.782971
    12  H    2.736961   3.249921   2.077931   3.775724   4.651742
    13  H    3.509983   2.706382   2.081548   4.485809   5.618047
    14  H    2.198550   2.067156   3.268162   2.543102   4.533640
    15  H    3.879136   2.047495   2.071725   5.131725   4.588934
    16  H    2.132268   2.491087   3.878839   2.619274   2.073732
    17  H    3.462730   3.018188   3.308074   4.547048   2.780831
    18  H    1.094519   3.253766   3.092647   2.000303   2.612783
    19  H    1.960692   3.306765   4.764320   0.972993   3.239913
    20  H    2.483815   4.372524   4.974859   2.438958   0.972926
    21  H    3.187501   3.484944   1.946203   4.564643   3.398675
                   11         12         13         14         15
    11  O    0.000000
    12  H    3.694158   0.000000
    13  H    4.532603   1.788988   0.000000
    14  H    4.775006   2.801788   2.447518   0.000000
    15  H    3.025291   4.030036   3.511965   4.003520   0.000000
    16  H    3.361723   4.527842   4.819404   3.371502   3.504582
    17  H    2.027895   4.785216   5.054063   4.711670   2.396779
    18  H    3.064869   2.314307   3.609931   2.866644   4.363669
    19  H    4.948572   4.386278   4.764475   2.529823   5.112825
    20  H    3.674496   4.931966   5.933409   4.522847   5.301924
    21  H    0.976423   2.925908   3.832498   4.476244   2.986976
                   16         17         18         19         20
    16  H    0.000000
    17  H    2.330227   0.000000
    18  H    3.033977   3.913824   0.000000
    19  H    2.371652   4.569700   2.816166   0.000000
    20  H    2.338268   3.642404   2.688413   2.775801   0.000000
    21  H    3.827821   2.752010   2.863316   5.077721   4.177797
                   21
    21  H    0.000000
 Stoichiometry    C6H10O5
 Framework group  C1[X(C6H10O5)]
 Deg. of freedom    57
 Full point group                 C1      NOp   1
 Largest Abelian subgroup         C1      NOp   1
 Largest concise Abelian subgroup C1      NOp   1
                         Standard orientation:                         
 ---------------------------------------------------------------------
 Center     Atomic      Atomic             Coordinates (Angstroms)
 Number     Number       Type             X           Y           Z
 ---------------------------------------------------------------------
      1          6           0        1.655788   -1.081575   -0.863156
      2          6           0        0.507510   -1.420539    0.090167
      3          6           0        1.312302    0.540439    0.754597
      4          6           0       -1.172947    0.436302    0.405143
      5          6           0        0.035339    1.396603    0.465191
      6          6           0       -0.859698   -0.850429   -0.374274
      7          8           0        0.956376   -0.720162    1.277284
      8          8           0        1.978793    0.276972   -0.494079
      9          8           0       -1.938665   -1.778422   -0.254664
     10          8           0       -2.297888    1.105227   -0.139642
     11          8           0        0.208758    2.173358   -0.705989
     12          1           0        1.383435   -1.111718   -1.920573
     13          1           0        2.525940   -1.722125   -0.686651
     14          1           0        0.433867   -2.482224    0.331104
     15          1           0        2.011125    1.027506    1.436646
     16          1           0       -1.377656    0.134092    1.444793
     17          1           0       -0.129477    2.095893    1.291999
     18          1           0       -0.826064   -0.615841   -1.442829
     19          1           0       -2.027445   -2.016397    0.684592
     20          1           0       -2.986719    0.423697   -0.226895
     21          1           0        0.864236    1.686532   -1.241480
 ---------------------------------------------------------------------
 Rotational constants (GHZ):      1.5292046      1.2344433      0.8585574
 Standard basis: 6-31+G(d,p) (6D, 7F)
 There are   259 symmetry adapted basis functions of A   symmetry.
 Integral buffers will be    131072 words long.
 Raffenetti 2 integral format.
 Two-electron integral symmetry is turned on.
   259 basis functions,   422 primitive gaussians,   259 cartesian basis functions
    43 alpha electrons       43 beta electrons
       nuclear repulsion energy       724.5182397932 Hartrees.
 NAtoms=   21 NActive=   21 NUniq=   21 SFac= 1.00D+00 NAtFMM=   60 NAOKFM=F Big=F
 ------------------------------------------------------------------------------
 Polarizable Continuum Model (PCM)
 =================================
 Model                : C-PCM.
 Atomic radii         : SMD-Coulomb.
 Polarization charges : Total charges.
 Charge compensation  : None.
 Solution method      : Matrix inversion.
 Cavity type          : VdW (van der Waals Surface) (Alpha=1.000).
 Cavity algorithm     : GePol (No added spheres)
                        Default sphere list used, NSphG=   21.
                        Lebedev-Laikov grids with approx.  5.0 points / Ang**2.
                        Smoothing algorithm: Karplus/York (Gamma=1.0000).
                        Polarization charges: spherical gaussians, with
                                              point-specific exponents (IZeta= 3).
                        Self-potential: point-specific (ISelfS= 7).
                        Self-field    : sphere-specific E.n sum rule (ISelfD= 2).
 Solvent              : Water, Eps=  78.355300 Eps(inf)=   1.777849
 ------------------------------------------------------------------------------
 ------------------------------------------------------------------------------
 Atomic radii for non-electrostatic terms: SMD-CDS.
 ------------------------------------------------------------------------------
 Nuclear repulsion after PCM non-electrostatic terms =      724.5231836861 Hartrees.
 One-electron integrals computed using PRISM.
 NBasis=   259 RedAO= T  NBF=   259
 NBsUse=   259 1.00D-06 NBFU=   259
 Harris functional with IExCor=  402 diagonalized for initial guess.
 ExpMin= 4.38D-02 ExpMax= 5.48D+03 ExpMxC= 8.25D+02 IAcc=2 IRadAn=         4 AccDes= 0.00D+00
 HarFok:  IExCor=  402 AccDes= 0.00D+00 IRadAn=         4 IDoV= 1
 ScaDFX=  1.000000  1.000000  1.000000  1.000000
 FoFCou: FMM=F IPFlag=           0 FMFlag=      100000 FMFlg1=           0
         NFxFlg=           0 DoJE=T BraDBF=F KetDBF=T FulRan=T
         Omega=  0.000000  0.000000  1.000000  0.000000  0.000000 ICntrl=     500 IOpCl=  0
         NMat0=    1 NMatS0=    1 NMatT0=    0 NMatD0=    1 NMtDS0=    0 NMtDT0=    0
         I1Cent=           4 NGrid=           0.
 Petite list used in FoFCou.
 Initial guess orbital symmetries:
       Occupied  (A) (A) (A) (A) (A) (A) (A) (A) (A) (A) (A) (A)
                 (A) (A) (A) (A) (A) (A) (A) (A) (A) (A) (A) (A)
                 (A) (A) (A) (A) (A) (A) (A) (A) (A) (A) (A) (A)
                 (A) (A) (A) (A) (A) (A) (A)
       Virtual   (A) (A) (A) (A) (A) (A) (A) (A) (A) (A) (A) (A)
                 (A) (A) (A) (A) (A) (A) (A) (A) (A) (A) (A) (A)
                 (A) (A) (A) (A) (A) (A) (A) (A) (A) (A) (A) (A)
                 (A) (A) (A) (A) (A) (A) (A) (A) (A) (A) (A) (A)
                 (A) (A) (A) (A) (A) (A) (A) (A) (A) (A) (A) (A)
                 (A) (A) (A) (A) (A) (A) (A) (A) (A) (A) (A) (A)
                 (A) (A) (A) (A) (A) (A) (A) (A) (A) (A) (A) (A)
                 (A) (A) (A) (A) (A) (A) (A) (A) (A) (A) (A) (A)
                 (A) (A) (A) (A) (A) (A) (A) (A) (A) (A) (A) (A)
                 (A) (A) (A) (A) (A) (A) (A) (A) (A) (A) (A) (A)
                 (A) (A) (A) (A) (A) (A) (A) (A) (A) (A) (A) (A)
                 (A) (A) (A) (A) (A) (A) (A) (A) (A) (A) (A) (A)
                 (A) (A) (A) (A) (A) (A) (A) (A) (A) (A) (A) (A)
                 (A) (A) (A) (A) (A) (A) (A) (A) (A) (A) (A) (A)
                 (A) (A) (A) (A) (A) (A) (A) (A) (A) (A) (A) (A)
                 (A) (A) (A) (A) (A) (A) (A) (A) (A) (A) (A) (A)
                 (A) (A) (A) (A) (A) (A) (A) (A) (A) (A) (A) (A)
                 (A) (A) (A) (A) (A) (A) (A) (A) (A) (A) (A) (A)
 The electronic state of the initial guess is 1-A.
 Requested convergence on RMS density matrix=1.00D-08 within 128 cycles.
 Requested convergence on MAX density matrix=1.00D-06.
 Requested convergence on             energy=1.00D-06.
 No special actions if energy rises.
 Error on total polarization charges =  0.05845
 SCF Done:  E(RB3LYP) =  -610.802814021     A.U. after   12 cycles
             Convg  =    0.4769D-08             -V/T =  2.0090
 SMD-CDS (non-electrostatic) energy       (kcal/mol) =       3.10
 (included in total energy above)

 **********************************************************************

            Population analysis using the SCF density.

 **********************************************************************

 Orbital symmetries:
       Occupied  (A) (A) (A) (A) (A) (A) (A) (A) (A) (A) (A) (A)
                 (A) (A) (A) (A) (A) (A) (A) (A) (A) (A) (A) (A)
                 (A) (A) (A) (A) (A) (A) (A) (A) (A) (A) (A) (A)
                 (A) (A) (A) (A) (A) (A) (A)
       Virtual   (A) (A) (A) (A) (A) (A) (A) (A) (A) (A) (A) (A)
                 (A) (A) (A) (A) (A) (A) (A) (A) (A) (A) (A) (A)
                 (A) (A) (A) (A) (A) (A) (A) (A) (A) (A) (A) (A)
                 (A) (A) (A) (A) (A) (A) (A) (A) (A) (A) (A) (A)
                 (A) (A) (A) (A) (A) (A) (A) (A) (A) (A) (A) (A)
                 (A) (A) (A) (A) (A) (A) (A) (A) (A) (A) (A) (A)
                 (A) (A) (A) (A) (A) (A) (A) (A) (A) (A) (A) (A)
                 (A) (A) (A) (A) (A) (A) (A) (A) (A) (A) (A) (A)
                 (A) (A) (A) (A) (A) (A) (A) (A) (A) (A) (A) (A)
                 (A) (A) (A) (A) (A) (A) (A) (A) (A) (A) (A) (A)
                 (A) (A) (A) (A) (A) (A) (A) (A) (A) (A) (A) (A)
                 (A) (A) (A) (A) (A) (A) (A) (A) (A) (A) (A) (A)
                 (A) (A) (A) (A) (A) (A) (A) (A) (A) (A) (A) (A)
                 (A) (A) (A) (A) (A) (A) (A) (A) (A) (A) (A) (A)
                 (A) (A) (A) (A) (A) (A) (A) (A) (A) (A) (A) (A)
                 (A) (A) (A) (A) (A) (A) (A) (A) (A) (A) (A) (A)
                 (A) (A) (A) (A) (A) (A) (A) (A) (A) (A) (A) (A)
                 (A) (A) (A) (A) (A) (A) (A) (A) (A) (A) (A) (A)
 The electronic state is 1-A.
 Alpha  occ. eigenvalues --  -19.18671 -19.18237 -19.17237 -19.16841 -19.16543
 Alpha  occ. eigenvalues --  -10.29880 -10.25289 -10.24673 -10.24603 -10.24239
 Alpha  occ. eigenvalues --  -10.24185  -1.11499  -1.05087  -1.03933  -1.02405
 Alpha  occ. eigenvalues --   -1.01187  -0.79314  -0.77785  -0.68152  -0.65596
 Alpha  occ. eigenvalues --   -0.62733  -0.58211  -0.55734  -0.54167  -0.51471
 Alpha  occ. eigenvalues --   -0.50755  -0.49243  -0.45731  -0.45070  -0.44643
 Alpha  occ. eigenvalues --   -0.43279  -0.40658  -0.40244  -0.39859  -0.37463
 Alpha  occ. eigenvalues --   -0.36589  -0.34994  -0.34386  -0.32410  -0.30289
 Alpha  occ. eigenvalues --   -0.29549  -0.27171  -0.26700
 Alpha virt. eigenvalues --    0.00721   0.01517   0.02163   0.02514   0.04334
 Alpha virt. eigenvalues --    0.04504   0.04824   0.05330   0.06099   0.08434
 Alpha virt. eigenvalues --    0.09032   0.09607   0.09912   0.10608   0.11454
 Alpha virt. eigenvalues --    0.12131   0.12279   0.13398   0.13770   0.14033
 Alpha virt. eigenvalues --    0.15639   0.15891   0.16059   0.16785   0.17368
 Alpha virt. eigenvalues --    0.17891   0.18503   0.19332   0.20689   0.21125
 Alpha virt. eigenvalues --    0.21310   0.22029   0.22206   0.23037   0.23267
 Alpha virt. eigenvalues --    0.24920   0.25167   0.25806   0.26541   0.27361
 Alpha virt. eigenvalues --    0.27775   0.28413   0.29130   0.29478   0.29845
 Alpha virt. eigenvalues --    0.30322   0.30932   0.31994   0.32622   0.32855
 Alpha virt. eigenvalues --    0.34099   0.34425   0.34957   0.35664   0.36085
 Alpha virt. eigenvalues --    0.36519   0.37939   0.38242   0.39418   0.39844
 Alpha virt. eigenvalues --    0.40576   0.42177   0.43113   0.44100   0.45477
 Alpha virt. eigenvalues --    0.48888   0.63295   0.65682   0.67700   0.69675
 Alpha virt. eigenvalues --    0.70609   0.72230   0.74043   0.76250   0.78231
 Alpha virt. eigenvalues --    0.78583   0.79914   0.81564   0.82754   0.85667
 Alpha virt. eigenvalues --    0.86765   0.89351   0.93315   0.94112   0.97326
 Alpha virt. eigenvalues --    0.99650   1.01591   1.03002   1.03642   1.06503
 Alpha virt. eigenvalues --    1.07437   1.08511   1.10722   1.11620   1.15077
 Alpha virt. eigenvalues --    1.18031   1.22869   1.23681   1.25730   1.26042
 Alpha virt. eigenvalues --    1.27472   1.28486   1.30666   1.31446   1.32135
 Alpha virt. eigenvalues --    1.33377   1.34861   1.35372   1.38420   1.40756
 Alpha virt. eigenvalues --    1.41415   1.42777   1.45278   1.47121   1.50029
 Alpha virt. eigenvalues --    1.51238   1.55153   1.55651   1.56447   1.58597
 Alpha virt. eigenvalues --    1.60848   1.62082   1.63269   1.65441   1.68554
 Alpha virt. eigenvalues --    1.69111   1.70549   1.75811   1.77466   1.78251
 Alpha virt. eigenvalues --    1.79884   1.82456   1.83243   1.85460   1.86337
 Alpha virt. eigenvalues --    1.87941   1.90676   1.93891   1.95597   1.97236
 Alpha virt. eigenvalues --    1.98301   2.01816   2.03080   2.05124   2.07902
 Alpha virt. eigenvalues --    2.10796   2.10895   2.12713   2.13830   2.16949
 Alpha virt. eigenvalues --    2.19893   2.21060   2.24329   2.26386   2.31889
 Alpha virt. eigenvalues --    2.32300   2.34313   2.38890   2.40255   2.43066
 Alpha virt. eigenvalues --    2.44640   2.46290   2.48397   2.49819   2.52363
 Alpha virt. eigenvalues --    2.56224   2.56543   2.57867   2.61429   2.62232
 Alpha virt. eigenvalues --    2.63778   2.65045   2.68085   2.69509   2.70758
 Alpha virt. eigenvalues --    2.73141   2.74534   2.74661   2.76238   2.78781
 Alpha virt. eigenvalues --    2.84616   2.85562   2.86263   2.87345   2.90533
 Alpha virt. eigenvalues --    2.93222   2.95047   2.96549   3.00380   3.03426
 Alpha virt. eigenvalues --    3.05439   3.07467   3.13013   3.15249   3.24759
 Alpha virt. eigenvalues --    3.32999   3.39373   3.41091   3.43700   3.49291
 Alpha virt. eigenvalues --    3.50510   3.51380   3.54237   3.58320   3.60210
 Alpha virt. eigenvalues --    4.23416   4.28977   4.38482   4.46618   4.51830
 Alpha virt. eigenvalues --    4.56088   4.61233   4.72292   4.81329   4.93672
 Alpha virt. eigenvalues --    5.00470
          Condensed to atoms (all electrons):
              1          2          3          4          5          6
     1  C    5.475234   0.036393  -0.291873   0.082727   0.025484  -0.200566
     2  C    0.036393   6.550235  -0.700117   0.175879   0.318715  -0.735811
     3  C   -0.291873  -0.700117   6.369990  -0.257648  -0.342481   0.521786
     4  C    0.082727   0.175879  -0.257648   5.937168  -0.027128  -0.302570
     5  C    0.025484   0.318715  -0.342481  -0.027128   6.189994  -0.508779
     6  C   -0.200566  -0.735811   0.521786  -0.302570  -0.508779   6.821948
     7  O   -0.018964   0.090064   0.201300   0.022107  -0.142333  -0.078996
     8  O    0.129539  -0.128220   0.240715   0.022428  -0.204652   0.084822
     9  O    0.010975  -0.002332  -0.029198  -0.039227   0.037575   0.131594
    10  O    0.005788   0.016187   0.056800   0.286324  -0.196778  -0.111561
    11  O    0.021830  -0.035513  -0.061631  -0.159894   0.255392   0.026306
    12  H    0.455508  -0.105946   0.018874   0.003261   0.004960  -0.007128
    13  H    0.410500  -0.016251  -0.026036   0.002815   0.001727  -0.000212
    14  H    0.004722   0.333034   0.020212   0.003069  -0.005655  -0.023074
    15  H    0.011601   0.011291   0.353582   0.009872  -0.027536   0.006124
    16  H    0.006129  -0.023440  -0.020993   0.376782  -0.016488  -0.020257
    17  H   -0.002148  -0.022546  -0.006465  -0.047941   0.361892   0.057217
    18  H    0.034704  -0.139578  -0.007577  -0.112690   0.031758   0.511296
    19  H    0.007006  -0.052596  -0.001373  -0.050444   0.007269   0.077864
    20  H   -0.000848   0.022553  -0.014000   0.001447   0.042910  -0.062507
    21  H    0.000611   0.003541  -0.049657  -0.014071   0.019035   0.013193
              7          8          9         10         11         12
     1  C   -0.018964   0.129539   0.010975   0.005788   0.021830   0.455508
     2  C    0.090064  -0.128220  -0.002332   0.016187  -0.035513  -0.105946
     3  C    0.201300   0.240715  -0.029198   0.056800  -0.061631   0.018874
     4  C    0.022107   0.022428  -0.039227   0.286324  -0.159894   0.003261
     5  C   -0.142333  -0.204652   0.037575  -0.196778   0.255392   0.004960
     6  C   -0.078996   0.084822   0.131594  -0.111561   0.026306  -0.007128
     7  O    8.453431  -0.071296   0.002234  -0.000320   0.015022   0.010193
     8  O   -0.071296   8.525933  -0.001297  -0.005679  -0.012520  -0.051944
     9  O    0.002234  -0.001297   8.336046  -0.013490  -0.003339   0.000923
    10  O   -0.000320  -0.005679  -0.013490   8.383812   0.002541   0.000055
    11  O    0.015022  -0.012520  -0.003339   0.002541   8.342292   0.001004
    12  H    0.010193  -0.051944   0.000923   0.000055   0.001004   0.528482
    13  H   -0.001865  -0.043362  -0.000268  -0.000001  -0.000495  -0.037679
    14  H   -0.031150   0.009532  -0.001646  -0.000236   0.000250   0.001876
    15  H   -0.046660  -0.036276   0.000017  -0.000505   0.004064  -0.000256
    16  H    0.008341  -0.000843  -0.010405  -0.049045   0.007740  -0.000003
    17  H    0.001110   0.005133  -0.000702  -0.000290  -0.059925   0.000000
    18  H    0.010681  -0.002723  -0.065986   0.002129   0.001709   0.001784
    19  H    0.003186  -0.000199   0.252056  -0.000614   0.000120  -0.000004
    20  H   -0.000063   0.000105   0.020639   0.241452  -0.001820  -0.000002
    21  H    0.001477   0.031354  -0.000042  -0.001239   0.248258  -0.000246
             13         14         15         16         17         18
     1  C    0.410500   0.004722   0.011601   0.006129  -0.002148   0.034704
     2  C   -0.016251   0.333034   0.011291  -0.023440  -0.022546  -0.139578
     3  C   -0.026036   0.020212   0.353582  -0.020993  -0.006465  -0.007577
     4  C    0.002815   0.003069   0.009872   0.376782  -0.047941  -0.112690
     5  C    0.001727  -0.005655  -0.027536  -0.016488   0.361892   0.031758
     6  C   -0.000212  -0.023074   0.006124  -0.020257   0.057217   0.511296
     7  O   -0.001865  -0.031150  -0.046660   0.008341   0.001110   0.010681
     8  O   -0.043362   0.009532  -0.036276  -0.000843   0.005133  -0.002723
     9  O   -0.000268  -0.001646   0.000017  -0.010405  -0.000702  -0.065986
    10  O   -0.000001  -0.000236  -0.000505  -0.049045  -0.000290   0.002129
    11  O   -0.000495   0.000250   0.004064   0.007740  -0.059925   0.001709
    12  H   -0.037679   0.001876  -0.000256  -0.000003   0.000000   0.001784
    13  H    0.544727  -0.003620   0.000502   0.000005   0.000005   0.000234
    14  H   -0.003620   0.504273  -0.000052  -0.000094   0.000013   0.002349
    15  H    0.000502  -0.000052   0.540954  -0.000141  -0.005534   0.000018
    16  H    0.000005  -0.000094  -0.000141   0.576423  -0.006400   0.004572
    17  H    0.000005   0.000013  -0.005534  -0.006400   0.554918  -0.000153
    18  H    0.000234   0.002349   0.000018   0.004572  -0.000153   0.539174
    19  H    0.000002   0.000302   0.000001   0.004511  -0.000018   0.006692
    20  H    0.000000  -0.000012   0.000005  -0.005124  -0.000193  -0.001286
    21  H    0.000133  -0.000014   0.000246  -0.000139   0.005708  -0.000151
             19         20         21
     1  C    0.007006  -0.000848   0.000611
     2  C   -0.052596   0.022553   0.003541
     3  C   -0.001373  -0.014000  -0.049657
     4  C   -0.050444   0.001447  -0.014071
     5  C    0.007269   0.042910   0.019035
     6  C    0.077864  -0.062507   0.013193
     7  O    0.003186  -0.000063   0.001477
     8  O   -0.000199   0.000105   0.031354
     9  O    0.252056   0.020639  -0.000042
    10  O   -0.000614   0.241452  -0.001239
    11  O    0.000120  -0.001820   0.248258
    12  H   -0.000004  -0.000002  -0.000246
    13  H    0.000002   0.000000   0.000133
    14  H    0.000302  -0.000012  -0.000014
    15  H    0.000001   0.000005   0.000246
    16  H    0.004511  -0.005124  -0.000139
    17  H   -0.000018  -0.000193   0.005708
    18  H    0.006692  -0.001286  -0.000151
    19  H    0.340679  -0.000839  -0.000001
    20  H   -0.000839   0.346974   0.000009
    21  H   -0.000001   0.000009   0.326418
 Mulliken atomic charges:
              1
     1  C   -0.204355
     2  C    0.404458
     3  C    0.025789
     4  C    0.087735
     5  C    0.175120
     6  C   -0.200689
     7  O   -0.427499
     8  O   -0.490551
     9  O   -0.624128
    10  O   -0.615331
    11  O   -0.591392
    12  H    0.176289
    13  H    0.169141
    14  H    0.185922
    15  H    0.178683
    16  H    0.168869
    17  H    0.166317
    18  H    0.183044
    19  H    0.406402
    20  H    0.410600
    21  H    0.415575
 Sum of Mulliken atomic charges =   0.00000
 Mulliken charges with hydrogens summed into heavy atoms:
              1
     1  C    0.141076
     2  C    0.590380
     3  C    0.204473
     4  C    0.256604
     5  C    0.341437
     6  C   -0.017645
     7  O   -0.427499
     8  O   -0.490551
     9  O   -0.217726
    10  O   -0.204731
    11  O   -0.175816
 Sum of Mulliken charges with hydrogens summed into heavy atoms =   0.00000
 Electronic spatial extent (au):  <R**2>=           1454.6530
 Charge=              0.0000 electrons
 Dipole moment (field-independent basis, Debye):
    X=              1.2479    Y=             -5.0623    Z=              1.7746  Tot=              5.5076
 Quadrupole moment (field-independent basis, Debye-Ang):
   XX=            -67.3565   YY=            -72.7504   ZZ=            -62.4448
   XY=              2.8805   XZ=             -6.3652   YZ=              4.0156
 Traceless Quadrupole moment (field-independent basis, Debye-Ang):
   XX=              0.1608   YY=             -5.2332   ZZ=              5.0724
   XY=              2.8805   XZ=             -6.3652   YZ=              4.0156
 Octapole moment (field-independent basis, Debye-Ang**2):
  XXX=            -14.9778  YYY=            -34.1048  ZZZ=             -8.4377  XYY=             18.4539
  XXY=            -10.8209  XXZ=             10.6620  XZZ=             -0.3297  YZZ=              2.4936
  YYZ=             18.1483  XYZ=             13.1784
 Hexadecapole moment (field-independent basis, Debye-Ang**3):
 XXXX=           -824.3933 YYYY=           -740.6184 ZZZZ=           -251.8187 XXXY=              9.5180
 XXXZ=             -5.0636 YYYX=              5.0700 YYYZ=             -2.1431 ZZZX=            -13.4946
 ZZZY=              3.5581 XXYY=           -277.9513 XXZZ=           -178.6092 YYZZ=           -152.2198
 XXYZ=             -9.3483 YYXZ=            -27.6487 ZZXY=             15.0391
 N-N= 7.245231836861D+02 E-N=-2.878572502569D+03  KE= 6.053274893614D+02

 Test job not archived.
 1\1\GINC-COMPUTE-10-5\SP\RB3LYP\6-31+G(d,p)\C6H10O5\ASAROTTI.IQUIR\15-
 Apr-2019\0\\# B3LYP/6-31+G** test scrf=(pcm,solvent=water,smd,dovacuum
 )\\comment\\0,1\C,0,1.655788,-1.081575,-0.863156\C,0,0.50751,-1.420539
 ,0.090167\C,0,1.312302,0.540439,0.754597\C,0,-1.172947,0.436302,0.4051
 43\C,0,0.035339,1.396603,0.465191\C,0,-0.859698,-0.850429,-0.374274\O,
 0,0.956376,-0.720162,1.277284\O,0,1.978793,0.276972,-0.494079\O,0,-1.9
 38665,-1.778422,-0.254664\O,0,-2.297888,1.105227,-0.139642\O,0,0.20875
 8,2.173358,-0.705989\H,0,1.383435,-1.111718,-1.920573\H,0,2.52594,-1.7
 22125,-0.686651\H,0,0.433867,-2.482224,0.331104\H,0,2.011125,1.027506,
 1.436646\H,0,-1.377656,0.134092,1.444793\H,0,-0.129477,2.095893,1.2919
 99\H,0,-0.826064,-0.615841,-1.442829\H,0,-2.027445,-2.016397,0.684592\
 H,0,-2.986719,0.423697,-0.226895\H,0,0.864236,1.686532,-1.24148\\Versi
 on=EM64L-G09RevC.01\State=1-A\HF=-610.802814\RMSD=4.769e-09\Dipole=0.4
 909814,-1.991679,0.6982003\Quadrupole=0.1195394,-3.8907608,3.7712214,2
 .141618,-4.7323911,2.9854771\PG=C01 [X(C6H10O5)]\\@


 HONESTY IN A LAWYER IS LIKE A HEN'S HIND LEGS.
  -- MAGNUS OLESON, LAKE WOBEGON PATRIARCH, C.1875
 Job cpu time:  0 days  0 hours  5 minutes 29.1 seconds.
 File lengths (MBytes):  RWF=     56 Int=      0 D2E=      0 Chk=      4 Scr=      1
 Normal termination of Gaussian 09 at Mon Apr 15 18:35:36 2019.
