 Entering Gaussian System, Link 0=g09
 Input=/home/mmarcarino.iquir/NMR/05_SSR_Levo12_OPTB_nmr.gjc
 Output=/home/mmarcarino.iquir/NMR/05_SSR_Levo12_OPTB_nmr.log
 Initial command:
 /share/apps/Gaussian09/EM64T.SSE4.2-enabled/g09/l1.exe /tmp/Gau-2538.inp -scrdir=/tmp/
 Entering Link 1 = /share/apps/Gaussian09/EM64T.SSE4.2-enabled/g09/l1.exe PID=      2539.
  
 Copyright (c) 1988,1990,1992,1993,1995,1998,2003,2009,2011,
            Gaussian, Inc.  All Rights Reserved.
  
 This is part of the Gaussian(R) 09 program.  It is based on
 the Gaussian(R) 03 system (copyright 2003, Gaussian, Inc.),
 the Gaussian(R) 98 system (copyright 1998, Gaussian, Inc.),
 the Gaussian(R) 94 system (copyright 1995, Gaussian, Inc.),
 the Gaussian 92(TM) system (copyright 1992, Gaussian, Inc.),
 the Gaussian 90(TM) system (copyright 1990, Gaussian, Inc.),
 the Gaussian 88(TM) system (copyright 1988, Gaussian, Inc.),
 the Gaussian 86(TM) system (copyright 1986, Carnegie Mellon
 University), and the Gaussian 82(TM) system (copyright 1983,
 Carnegie Mellon University). Gaussian is a federally registered
 trademark of Gaussian, Inc.
  
 This software contains proprietary and confidential information,
 including trade secrets, belonging to Gaussian, Inc.
  
 This software is provided under written license and may be
 used, copied, transmitted, or stored only in accord with that
 written license.
  
 The following legend is applicable only to US Government
 contracts under FAR:
  
                    RESTRICTED RIGHTS LEGEND
  
 Use, reproduction and disclosure by the US Government is
 subject to restrictions as set forth in subparagraphs (a)
 and (c) of the Commercial Computer Software - Restricted
 Rights clause in FAR 52.227-19.
  
 Gaussian, Inc.
 340 Quinnipiac St., Bldg. 40, Wallingford CT 06492
  
  
 ---------------------------------------------------------------
 Warning -- This program may not be used in any manner that
 competes with the business of Gaussian, Inc. or will provide
 assistance to any competitor of Gaussian, Inc.  The licensee
 of this program is prohibited from giving any competitor of
 Gaussian, Inc. access to this program.  By using this program,
 the user acknowledges that Gaussian, Inc. is engaged in the
 business of creating and licensing software in the field of
 computational chemistry and represents and warrants to the
 licensee that it is not a competitor of Gaussian, Inc. and that
 it will not use this program in any manner prohibited above.
 ---------------------------------------------------------------
  

 Cite this work as:
 Gaussian 09, Revision C.01,
 M. J. Frisch, G. W. Trucks, H. B. Schlegel, G. E. Scuseria, 
 M. A. Robb, J. R. Cheeseman, G. Scalmani, V. Barone, B. Mennucci, 
 G. A. Petersson, H. Nakatsuji, M. Caricato, X. Li, H. P. Hratchian, 
 A. F. Izmaylov, J. Bloino, G. Zheng, J. L. Sonnenberg, M. Hada, 
 M. Ehara, K. Toyota, R. Fukuda, J. Hasegawa, M. Ishida, T. Nakajima, 
 Y. Honda, O. Kitao, H. Nakai, T. Vreven, J. A. Montgomery, Jr., 
 J. E. Peralta, F. Ogliaro, M. Bearpark, J. J. Heyd, E. Brothers, 
 K. N. Kudin, V. N. Staroverov, T. Keith, R. Kobayashi, J. Normand, 
 K. Raghavachari, A. Rendell, J. C. Burant, S. S. Iyengar, J. Tomasi, 
 M. Cossi, N. Rega, J. M. Millam, M. Klene, J. E. Knox, J. B. Cross, 
 V. Bakken, C. Adamo, J. Jaramillo, R. Gomperts, R. E. Stratmann, 
 O. Yazyev, A. J. Austin, R. Cammi, C. Pomelli, J. W. Ochterski, 
 R. L. Martin, K. Morokuma, V. G. Zakrzewski, G. A. Voth, 
 P. Salvador, J. J. Dannenberg, S. Dapprich, A. D. Daniels, 
 O. Farkas, J. B. Foresman, J. V. Ortiz, J. Cioslowski, 
 and D. J. Fox, Gaussian, Inc., Wallingford CT, 2010.
 
 ******************************************
 Gaussian 09:  EM64L-G09RevC.01 23-Sep-2011
                12-Apr-2019 
 ******************************************
 %nprocshared=4
 Will use up to    4 processors via shared memory.
 ------------------------------------------------
 # mpw1pw91/6-31+g** nmr scrf=(pcm,solvent=water)
 ------------------------------------------------
 1/38=1/1;
 2/12=2,17=6,18=5,40=1/2;
 3/5=1,6=6,7=111,11=2,16=1,25=1,30=1,70=2201,72=1,74=-7/1,2,8,3;
 4//1;
 5/5=2,38=5,53=1/2;
 8/6=1,10=90,11=11/1;
 10/13=100,45=16/2;
 6/7=2,8=2,9=2,10=2,28=1/1;
 99/9=1/99;
 -------
 comment
 -------
 Charge =  0 Multiplicity = 1
 Symbolic Z-Matrix:
 6                    -1.65543   0.87724  -0.97321 
 6                    -0.55902   1.3748   -0.0048 
 6                    -1.33072  -0.54312   0.78432 
 6                     1.17316  -0.38229   0.45095 
 6                    -0.02189  -1.34963   0.47614 
 6                     0.86062   0.8747   -0.3736 
 8                    -0.9786    0.7585    1.23347 
 8                    -2.12655  -0.33708  -0.36525 
 8                     1.88617   1.85336  -0.20976 
 8                     2.28491  -1.09647  -0.08185 
 8                    -0.14108  -2.01731  -0.77063 
 1                    -1.27578   0.6747   -1.9794 
 1                    -2.48967   1.58298  -1.03719 
 1                    -0.5635    2.45757   0.13307 
 1                    -1.93902  -1.02511   1.55135 
 1                     1.38279  -0.06746   1.48265 
 1                     0.13782  -2.07766   1.28563 
 1                     0.89966   0.61682  -1.43583 
 1                     1.91378   2.1056    0.72928 
 1                     2.95818  -0.43437  -0.31467 
 1                     0.77655  -2.23127  -1.02159 
 
                          Input orientation:                          
 ---------------------------------------------------------------------
 Center     Atomic      Atomic             Coordinates (Angstroms)
 Number     Number       Type             X           Y           Z
 ---------------------------------------------------------------------
      1          6           0       -1.655428    0.877239   -0.973209
      2          6           0       -0.559020    1.374801   -0.004802
      3          6           0       -1.330718   -0.543117    0.784323
      4          6           0        1.173163   -0.382290    0.450945
      5          6           0       -0.021889   -1.349633    0.476137
      6          6           0        0.860623    0.874699   -0.373604
      7          8           0       -0.978603    0.758504    1.233472
      8          8           0       -2.126546   -0.337083   -0.365247
      9          8           0        1.886173    1.853360   -0.209756
     10          8           0        2.284906   -1.096465   -0.081845
     11          8           0       -0.141079   -2.017313   -0.770627
     12          1           0       -1.275778    0.674702   -1.979400
     13          1           0       -2.489670    1.582976   -1.037185
     14          1           0       -0.563501    2.457567    0.133067
     15          1           0       -1.939021   -1.025112    1.551346
     16          1           0        1.382789   -0.067461    1.482650
     17          1           0        0.137816   -2.077659    1.285626
     18          1           0        0.899661    0.616818   -1.435834
     19          1           0        1.913784    2.105602    0.729278
     20          1           0        2.958178   -0.434372   -0.314671
     21          1           0        0.776547   -2.231270   -1.021587
 ---------------------------------------------------------------------
                    Distance matrix (angstroms):
                    1          2          3          4          5
     1  C    0.000000
     2  C    1.545151   0.000000
     3  C    2.282929   2.212837   0.000000
     4  C    3.408160   2.509090   2.531092   0.000000
     5  C    3.118976   2.818218   1.567954   1.537705   0.000000
     6  C    2.586512   1.549678   2.855341   1.535442   2.539398
     7  O    2.311197   1.445405   1.421245   2.558096   2.435795
     8  O    1.437410   2.348958   1.413260   3.399455   2.482492
     9  O    3.752147   2.499999   4.132757   2.437835   3.790820
    10  O    4.496251   3.768422   3.758880   1.424740   2.386785
    11  O    3.273030   3.502513   2.450789   2.427503   1.419304
    12  H    1.094338   2.214253   3.020640   3.608479   3.420502
    13  H    1.094585   2.199218   3.030071   4.415104   4.120714
    14  H    2.216661   1.091517   3.164942   3.343925   3.860805
    15  H    3.173758   3.175780   1.091181   3.363003   2.221887
    16  H    4.019262   2.839587   2.842012   1.098852   2.151779
    17  H    4.129102   3.751035   2.182365   2.154742   1.100364
    18  H    2.609659   2.179482   3.353973   2.152430   2.893409
    19  H    4.140847   2.680989   4.188739   2.610670   3.968571
    20  H    4.841421   3.967343   4.428797   1.942977   3.216190
    21  H    3.947109   3.977605   3.248344   2.396744   1.912580
                    6          7          8          9         10
     6  C    0.000000
     7  O    2.445189   0.000000
     8  O    3.223610   2.252551   0.000000
     9  O    1.427017   3.389478   4.574290   0.000000
    10  O    2.449325   3.977620   4.485297   2.979399   0.000000
    11  O    3.086222   3.524630   2.632410   4.405274   2.684732
    12  H    2.680073   3.227674   2.086386   3.810355   4.406384
    13  H    3.488045   2.849379   2.066395   4.461586   5.557756
    14  H    2.188679   2.066402   3.240601   2.546271   4.559688
    15  H    3.892650   2.050544   2.044964   5.100901   4.529234
    16  H    2.146160   2.514056   3.975280   2.609059   2.078535
    17  H    3.462934   3.048431   3.298836   4.554759   2.728134
    18  H    1.093782   3.266978   3.348733   2.001377   2.586026
    19  H    1.959750   3.230292   4.846541   0.972714   3.323986
    20  H    2.473232   4.395218   5.085906   2.528620   0.972559
    21  H    3.173956   4.135770   3.527985   4.309819   2.108565
                   11         12         13         14         15
    11  O    0.000000
    12  H    3.161585   0.000000
    13  H    4.306857   1.785011   0.000000
    14  H    4.584720   2.854551   2.417545   0.000000
    15  H    3.099777   3.974346   3.715620   4.004076   0.000000
    16  H    3.346842   4.427705   4.906063   3.461963   3.457779
    17  H    2.075958   4.498237   5.069456   4.731650   2.343441
    18  H    2.909345   2.243067   3.546822   2.826774   4.435910
    19  H    4.844647   4.422411   4.773252   2.572215   5.032025
    20  H    3.509842   4.682708   5.854124   4.578865   5.273855
    21  H    0.975088   3.684307   5.021642   5.011402   3.930536
                   16         17         18         19         20
    16  H    0.000000
    17  H    2.372693   0.000000
    18  H    3.036313   3.904735   0.000000
    19  H    2.360451   4.578565   2.816493   0.000000
    20  H    2.418023   3.635352   2.568949   2.938036   0.000000
    21  H    3.364640   2.398918   2.880688   4.813242   2.913432
                   21
    21  H    0.000000
 Stoichiometry    C6H10O5
 Framework group  C1[X(C6H10O5)]
 Deg. of freedom    57
 Full point group                 C1      NOp   1
 Largest Abelian subgroup         C1      NOp   1
 Largest concise Abelian subgroup C1      NOp   1
                         Standard orientation:                         
 ---------------------------------------------------------------------
 Center     Atomic      Atomic             Coordinates (Angstroms)
 Number     Number       Type             X           Y           Z
 ---------------------------------------------------------------------
      1          6           0        1.655428   -0.877239   -0.973209
      2          6           0        0.559020   -1.374801   -0.004802
      3          6           0        1.330718    0.543117    0.784323
      4          6           0       -1.173163    0.382291    0.450945
      5          6           0        0.021889    1.349633    0.476137
      6          6           0       -0.860623   -0.874699   -0.373604
      7          8           0        0.978603   -0.758504    1.233472
      8          8           0        2.126546    0.337082   -0.365247
      9          8           0       -1.886174   -1.853359   -0.209756
     10          8           0       -2.284906    1.096466   -0.081845
     11          8           0        0.141080    2.017313   -0.770627
     12          1           0        1.275778   -0.674702   -1.979400
     13          1           0        2.489669   -1.582977   -1.037185
     14          1           0        0.563500   -2.457567    0.133067
     15          1           0        1.939021    1.025111    1.551346
     16          1           0       -1.382789    0.067462    1.482650
     17          1           0       -0.137815    2.077659    1.285626
     18          1           0       -0.899661   -0.616818   -1.435834
     19          1           0       -1.913785   -2.105601    0.729278
     20          1           0       -2.958178    0.434373   -0.314671
     21          1           0       -0.776546    2.231270   -1.021587
 ---------------------------------------------------------------------
 Rotational constants (GHZ):      1.5771942      1.2119156      0.8672905
 Standard basis: 6-31+G(d,p) (6D, 7F)
 There are   259 symmetry adapted basis functions of A   symmetry.
 Integral buffers will be    131072 words long.
 Raffenetti 2 integral format.
 Two-electron integral symmetry is turned on.
   259 basis functions,   422 primitive gaussians,   259 cartesian basis functions
    43 alpha electrons       43 beta electrons
       nuclear repulsion energy       725.6083767219 Hartrees.
 NAtoms=   21 NActive=   21 NUniq=   21 SFac= 1.00D+00 NAtFMM=   60 NAOKFM=F Big=F
 ------------------------------------------------------------------------------
 Polarizable Continuum Model (PCM)
 =================================
 Model                : PCM.
 Atomic radii         : UFF (Universal Force Field).
 Polarization charges : Total charges.
 Charge compensation  : None.
 Solution method      : Matrix inversion.
 Cavity type          : Scaled VdW (van der Waals Surface) (Alpha=1.100).
 Cavity algorithm     : GePol (No added spheres)
                        Default sphere list used, NSphG=   21.
                        Lebedev-Laikov grids with approx.  5.0 points / Ang**2.
                        Smoothing algorithm: Karplus/York (Gamma=1.0000).
                        Polarization charges: spherical gaussians, with
                                              point-specific exponents (IZeta= 3).
                        Self-potential: point-specific (ISelfS= 7).
                        Self-field    : sphere-specific E.n sum rule (ISelfD= 2).
 Solvent              : Water, Eps=  78.355300 Eps(inf)=   1.777849
 ------------------------------------------------------------------------------
 One-electron integrals computed using PRISM.
 NBasis=   259 RedAO= T  NBF=   259
 NBsUse=   259 1.00D-06 NBFU=   259
 Harris functional with IExCor=  908 diagonalized for initial guess.
 ExpMin= 4.38D-02 ExpMax= 5.48D+03 ExpMxC= 8.25D+02 IAcc=2 IRadAn=         4 AccDes= 0.00D+00
 HarFok:  IExCor=  908 AccDes= 0.00D+00 IRadAn=         4 IDoV= 1
 ScaDFX=  1.000000  1.000000  1.000000  1.000000
 FoFCou: FMM=F IPFlag=           0 FMFlag=      100000 FMFlg1=           0
         NFxFlg=           0 DoJE=T BraDBF=F KetDBF=T FulRan=T
         Omega=  0.000000  0.000000  1.000000  0.000000  0.000000 ICntrl=     500 IOpCl=  0
         NMat0=    1 NMatS0=    1 NMatT0=    0 NMatD0=    1 NMtDS0=    0 NMtDT0=    0
         I1Cent=           4 NGrid=           0.
 Petite list used in FoFCou.
 Initial guess orbital symmetries:
       Occupied  (A) (A) (A) (A) (A) (A) (A) (A) (A) (A) (A) (A)
                 (A) (A) (A) (A) (A) (A) (A) (A) (A) (A) (A) (A)
                 (A) (A) (A) (A) (A) (A) (A) (A) (A) (A) (A) (A)
                 (A) (A) (A) (A) (A) (A) (A)
       Virtual   (A) (A) (A) (A) (A) (A) (A) (A) (A) (A) (A) (A)
                 (A) (A) (A) (A) (A) (A) (A) (A) (A) (A) (A) (A)
                 (A) (A) (A) (A) (A) (A) (A) (A) (A) (A) (A) (A)
                 (A) (A) (A) (A) (A) (A) (A) (A) (A) (A) (A) (A)
                 (A) (A) (A) (A) (A) (A) (A) (A) (A) (A) (A) (A)
                 (A) (A) (A) (A) (A) (A) (A) (A) (A) (A) (A) (A)
                 (A) (A) (A) (A) (A) (A) (A) (A) (A) (A) (A) (A)
                 (A) (A) (A) (A) (A) (A) (A) (A) (A) (A) (A) (A)
                 (A) (A) (A) (A) (A) (A) (A) (A) (A) (A) (A) (A)
                 (A) (A) (A) (A) (A) (A) (A) (A) (A) (A) (A) (A)
                 (A) (A) (A) (A) (A) (A) (A) (A) (A) (A) (A) (A)
                 (A) (A) (A) (A) (A) (A) (A) (A) (A) (A) (A) (A)
                 (A) (A) (A) (A) (A) (A) (A) (A) (A) (A) (A) (A)
                 (A) (A) (A) (A) (A) (A) (A) (A) (A) (A) (A) (A)
                 (A) (A) (A) (A) (A) (A) (A) (A) (A) (A) (A) (A)
                 (A) (A) (A) (A) (A) (A) (A) (A) (A) (A) (A) (A)
                 (A) (A) (A) (A) (A) (A) (A) (A) (A) (A) (A) (A)
                 (A) (A) (A) (A) (A) (A) (A) (A) (A) (A) (A) (A)
 The electronic state of the initial guess is 1-A.
 Requested convergence on RMS density matrix=1.00D-08 within 128 cycles.
 Requested convergence on MAX density matrix=1.00D-06.
 Requested convergence on             energy=1.00D-06.
 No special actions if energy rises.
 Error on total polarization charges =  0.01160
 SCF Done:  E(RmPW1PW91) =  -610.641132719     A.U. after   12 cycles
             Convg  =    0.5310D-08             -V/T =  2.0090
 Range of M.O.s used for correlation:     1   259
 NBasis=   259 NAE=    43 NBE=    43 NFC=     0 NFV=     0
 NROrb=    259 NOA=    43 NOB=    43 NVA=   216 NVB=   216

 **** Warning!!: The largest alpha MO coefficient is  0.64807075D+02

 NEqPCM:  Using equilibrium solvation (IEInf=0, Eps=  78.3553, EpsInf=   1.7778)
          Differentiating once with respect to magnetic field using GIAOs.
          Electric field/nuclear overlap derivatives assumed to be zero.
 FoFCou: FMM=F IPFlag=           0 FMFlag=    10101102 FMFlg1=           0
         NFxFlg=    40000000 DoJE=F BraDBF=F KetDBF=T FulRan=T
         Omega=  0.000000  0.000000  1.000000  0.000000  0.000000 ICntrl=    6100 IOpCl=  0
         NMat0=    1 NMatS0=    1 NMatT0=    0 NMatD0=    1 NMtDS0=    0 NMtDT0=    0
         I1Cent=           7 NGrid=        1528.
 Symmetry not used in FoFCou.
          There are     3 degrees of freedom in the 1st order CPHF.  IDoFFX=0.
      3 vectors produced by pass  0 Test12= 3.10D-13 3.33D-08 XBig12= 2.42D+01 9.74D-01.
 AX will form     3 AO Fock derivatives at one time.
      3 vectors produced by pass  1 Test12= 3.10D-13 3.33D-08 XBig12= 5.77D-02 3.18D-02.
      3 vectors produced by pass  2 Test12= 3.10D-13 3.33D-08 XBig12= 1.56D-04 1.72D-03.
      3 vectors produced by pass  3 Test12= 3.10D-13 3.33D-08 XBig12= 6.84D-07 1.72D-04.
      3 vectors produced by pass  4 Test12= 3.10D-13 3.33D-08 XBig12= 2.15D-09 6.41D-06.
      3 vectors produced by pass  5 Test12= 3.10D-13 3.33D-08 XBig12= 6.62D-12 3.60D-07.
 Inverted reduced A of dimension    18 with in-core refinement.
 Calculating GIAO nuclear magnetic shielding tensors.
 SCF GIAO Magnetic shielding tensor (ppm):
      1  C    Isotropic =   125.7634   Anisotropy =    52.3296
   XX=   115.4953   YX=    21.4354   ZX=    -1.9471
   XY=    24.9685   YY=   141.0126   ZY=    14.4643
   XZ=     5.5967   YZ=    18.7044   ZZ=   120.7824
   Eigenvalues:    99.0847   117.5558   160.6498
      2  C    Isotropic =   115.3501   Anisotropy =    43.5116
   XX=   114.5046   YX=    13.5704   ZX=     8.9483
   XY=     7.1759   YY=   106.5109   ZY=    17.7405
   XZ=    15.1269   YZ=    18.4119   ZZ=   125.0348
   Eigenvalues:    94.9735   106.7190   144.3578
      3  C    Isotropic =    95.2835   Anisotropy =    35.3562
   XX=    83.9837   YX=    -3.0107   ZX=   -26.6734
   XY=     5.7008   YY=   101.9705   ZY=    -3.7329
   XZ=   -19.6856   YZ=    -9.9387   ZZ=    99.8963
   Eigenvalues:    67.1892    99.8070   118.8543
      4  C    Isotropic =   123.0282   Anisotropy =    31.2060
   XX=   125.8924   YX=   -13.8996   ZX=     2.6485
   XY=   -11.2604   YY=   125.6828   ZY=    -4.5953
   XZ=    13.3320   YZ=   -13.3423   ZZ=   117.5094
   Eigenvalues:   111.7376   113.5149   143.8322
      5  C    Isotropic =   126.4030   Anisotropy =    36.4836
   XX=   117.6125   YX=    -2.2877   ZX=    -0.3846
   XY=     0.7514   YY=   124.5025   ZY=   -21.1826
   XZ=    -5.4271   YZ=   -16.3970   ZZ=   137.0940
   Eigenvalues:   110.2420   118.2416   150.7254
      6  C    Isotropic =   116.0796   Anisotropy =    29.0061
   XX=   131.4955   YX=    14.6868   ZX=    -7.8005
   XY=    -4.8063   YY=   115.6221   ZY=    -3.6025
   XZ=    -7.3763   YZ=    -9.9076   ZZ=   101.1212
   Eigenvalues:    97.5806   115.2411   135.4170
      7  O    Isotropic =   240.2043   Anisotropy =    63.4154
   XX=   206.2901   YX=    -9.6020   ZX=   -42.3632
   XY=    20.8094   YY=   268.3840   ZY=   -21.9814
   XZ=   -49.4044   YZ=     6.6455   ZZ=   245.9387
   Eigenvalues:   176.1288   262.0028   282.4812
      8  O    Isotropic =   268.9250   Anisotropy =   113.2033
   XX=   243.7116   YX=    27.6090   ZX=   -71.5272
   XY=    32.6996   YY=   294.2834   ZY=    15.6618
   XZ=   -79.0786   YZ=   -26.8596   ZZ=   268.7801
   Eigenvalues:   176.6115   285.7697   344.3939
      9  O    Isotropic =   283.1290   Anisotropy =    48.2432
   XX=   276.5745   YX=     9.2259   ZX=    -1.9076
   XY=    16.4634   YY=   277.6400   ZY=    -8.0090
   XZ=   -25.5999   YZ=   -27.9702   ZZ=   295.1726
   Eigenvalues:   263.7249   270.3710   315.2912
     10  O    Isotropic =   308.2459   Anisotropy =    22.0175
   XX=   312.0820   YX=    -1.9083   ZX=    12.5495
   XY=     2.8757   YY=   311.7107   ZY=    16.0907
   XZ=    11.5065   YZ=     2.4986   ZZ=   300.9451
   Eigenvalues:   290.4322   311.3814   322.9243
     11  O    Isotropic =   315.8979   Anisotropy =    47.8677
   XX=   338.4259   YX=   -16.9490   ZX=     3.9867
   XY=   -26.1845   YY=   297.9196   ZY=    15.1766
   XZ=    -1.7194   YZ=    -3.1111   ZZ=   311.3481
   Eigenvalues:   287.1066   312.7773   347.8097
     12  H    Isotropic =    27.7334   Anisotropy =     6.8899
   XX=    25.8495   YX=    -0.0375   ZX=     1.0605
   XY=     0.5415   YY=    25.7062   ZY=     2.5508
   XZ=    -0.4611   YZ=     1.6297   ZZ=    31.6445
   Eigenvalues:    25.0167    25.8568    32.3267
     13  H    Isotropic =    27.5413   Anisotropy =    10.4450
   XX=    28.6061   YX=    -3.0390   ZX=    -2.9242
   XY=    -4.1719   YY=    30.1421   ZY=     3.4659
   XZ=    -1.8502   YZ=     2.7502   ZZ=    23.8758
   Eigenvalues:    22.4290    25.6904    34.5047
     14  H    Isotropic =    27.1907   Anisotropy =     6.9269
   XX=    25.9730   YX=    -0.9969   ZX=     0.2271
   XY=     0.5115   YY=    31.7507   ZY=     0.1633
   XZ=     0.6027   YZ=     1.1024   ZZ=    23.8483
   Eigenvalues:    23.7147    26.0486    31.8086
     15  H    Isotropic =    25.9276   Anisotropy =     8.5921
   XX=    25.5296   YX=     1.9703   ZX=     2.4527
   XY=     1.5477   YY=    25.0380   ZY=     3.4270
   XZ=     3.3193   YZ=     3.5948   ZZ=    27.2152
   Eigenvalues:    22.3961    23.7310    31.6556
     16  H    Isotropic =    28.0614   Anisotropy =     3.8607
   XX=    28.7827   YX=    -1.5794   ZX=     0.1691
   XY=    -1.9587   YY=    25.3792   ZY=    -1.6779
   XZ=    -1.6637   YZ=    -1.8570   ZZ=    30.0224
   Eigenvalues:    24.0134    29.5357    30.6353
     17  H    Isotropic =    27.3894   Anisotropy =     7.9516
   XX=    23.7876   YX=    -0.2309   ZX=    -0.6695
   XY=     0.0560   YY=    27.6328   ZY=     2.5120
   XZ=    -0.0172   YZ=     3.7284   ZZ=    30.7479
   Eigenvalues:    23.7690    25.7088    32.6905
     18  H    Isotropic =    28.1925   Anisotropy =     3.7748
   XX=    28.7247   YX=     2.2056   ZX=    -1.1719
   XY=     2.7592   YY=    26.6972   ZY=    -1.1428
   XZ=     0.4281   YZ=    -0.2463   ZZ=    29.1557
   Eigenvalues:    24.9961    28.8725    30.7090
     19  H    Isotropic =    30.2648   Anisotropy =    16.0529
   XX=    26.2553   YX=     4.2044   ZX=    -2.5090
   XY=     3.9033   YY=    27.8974   ZY=    -6.2401
   XZ=    -2.1444   YZ=    -6.2318   ZZ=    36.6418
   Eigenvalues:    22.4624    27.3654    40.9668
     20  H    Isotropic =    28.9683   Anisotropy =    17.9589
   XX=    35.9432   YX=     5.3977   ZX=     4.7915
   XY=     5.7937   YY=    31.0460   ZY=     1.4073
   XZ=     4.9629   YZ=     3.0386   ZZ=    19.9157
   Eigenvalues:    18.5110    27.4531    40.9409
     21  H    Isotropic =    28.7714   Anisotropy =    17.9102
   XX=    38.2250   YX=    -2.9677   ZX=     3.5690
   XY=    -3.2276   YY=    24.7744   ZY=    -7.4247
   XZ=     4.2946   YZ=    -6.0191   ZZ=    23.3147
   Eigenvalues:    17.2448    28.3578    40.7115
 End of Minotr Frequency-dependent properties file   721 does not exist.
 End of Minotr Frequency-dependent properties file   722 does not exist.

 **********************************************************************

            Population analysis using the SCF density.

 **********************************************************************

 Orbital symmetries:
       Occupied  (A) (A) (A) (A) (A) (A) (A) (A) (A) (A) (A) (A)
                 (A) (A) (A) (A) (A) (A) (A) (A) (A) (A) (A) (A)
                 (A) (A) (A) (A) (A) (A) (A) (A) (A) (A) (A) (A)
                 (A) (A) (A) (A) (A) (A) (A)
       Virtual   (A) (A) (A) (A) (A) (A) (A) (A) (A) (A) (A) (A)
                 (A) (A) (A) (A) (A) (A) (A) (A) (A) (A) (A) (A)
                 (A) (A) (A) (A) (A) (A) (A) (A) (A) (A) (A) (A)
                 (A) (A) (A) (A) (A) (A) (A) (A) (A) (A) (A) (A)
                 (A) (A) (A) (A) (A) (A) (A) (A) (A) (A) (A) (A)
                 (A) (A) (A) (A) (A) (A) (A) (A) (A) (A) (A) (A)
                 (A) (A) (A) (A) (A) (A) (A) (A) (A) (A) (A) (A)
                 (A) (A) (A) (A) (A) (A) (A) (A) (A) (A) (A) (A)
                 (A) (A) (A) (A) (A) (A) (A) (A) (A) (A) (A) (A)
                 (A) (A) (A) (A) (A) (A) (A) (A) (A) (A) (A) (A)
                 (A) (A) (A) (A) (A) (A) (A) (A) (A) (A) (A) (A)
                 (A) (A) (A) (A) (A) (A) (A) (A) (A) (A) (A) (A)
                 (A) (A) (A) (A) (A) (A) (A) (A) (A) (A) (A) (A)
                 (A) (A) (A) (A) (A) (A) (A) (A) (A) (A) (A) (A)
                 (A) (A) (A) (A) (A) (A) (A) (A) (A) (A) (A) (A)
                 (A) (A) (A) (A) (A) (A) (A) (A) (A) (A) (A) (A)
                 (A) (A) (A) (A) (A) (A) (A) (A) (A) (A) (A) (A)
                 (A) (A) (A) (A) (A) (A) (A) (A) (A) (A) (A) (A)
 The electronic state is 1-A.
 Alpha  occ. eigenvalues --  -19.27781 -19.27033 -19.26997 -19.26795 -19.25802
 Alpha  occ. eigenvalues --  -10.36145 -10.32042 -10.31606 -10.31464 -10.31340
 Alpha  occ. eigenvalues --  -10.30677  -1.14421  -1.08961  -1.07177  -1.05417
 Alpha  occ. eigenvalues --   -1.04058  -0.82176  -0.80838  -0.70643  -0.68715
 Alpha  occ. eigenvalues --   -0.64926  -0.60346  -0.57963  -0.56205  -0.54209
 Alpha  occ. eigenvalues --   -0.52389  -0.50157  -0.48888  -0.47483  -0.46538
 Alpha  occ. eigenvalues --   -0.45561  -0.43455  -0.41680  -0.40679  -0.38602
 Alpha  occ. eigenvalues --   -0.37505  -0.36977  -0.36529  -0.33221  -0.32068
 Alpha  occ. eigenvalues --   -0.30341  -0.28959  -0.28217
 Alpha virt. eigenvalues --    0.00522   0.01391   0.01890   0.02344   0.04245
 Alpha virt. eigenvalues --    0.04507   0.04790   0.05255   0.05598   0.08157
 Alpha virt. eigenvalues --    0.08574   0.09406   0.09875   0.10249   0.11129
 Alpha virt. eigenvalues --    0.11854   0.12475   0.13263   0.13735   0.14134
 Alpha virt. eigenvalues --    0.15314   0.15654   0.15939   0.16387   0.17169
 Alpha virt. eigenvalues --    0.18033   0.18387   0.19063   0.21071   0.21539
 Alpha virt. eigenvalues --    0.21846   0.22022   0.23066   0.23418   0.24317
 Alpha virt. eigenvalues --    0.24613   0.25418   0.26088   0.26800   0.27488
 Alpha virt. eigenvalues --    0.28683   0.29503   0.29955   0.30102   0.30716
 Alpha virt. eigenvalues --    0.31426   0.32349   0.32634   0.32948   0.33878
 Alpha virt. eigenvalues --    0.34734   0.35590   0.35970   0.36497   0.36642
 Alpha virt. eigenvalues --    0.37646   0.38545   0.39276   0.39629   0.40325
 Alpha virt. eigenvalues --    0.42454   0.42719   0.43622   0.45119   0.45194
 Alpha virt. eigenvalues --    0.47804   0.63407   0.66688   0.68105   0.69554
 Alpha virt. eigenvalues --    0.71465   0.74884   0.75453   0.78307   0.78779
 Alpha virt. eigenvalues --    0.79422   0.80287   0.81458   0.83930   0.85765
 Alpha virt. eigenvalues --    0.87525   0.91594   0.94064   0.94793   0.98171
 Alpha virt. eigenvalues --    1.00721   1.01380   1.03616   1.05446   1.06540
 Alpha virt. eigenvalues --    1.08003   1.09442   1.10577   1.11976   1.14900
 Alpha virt. eigenvalues --    1.18958   1.22274   1.24364   1.26512   1.27675
 Alpha virt. eigenvalues --    1.28881   1.30746   1.31604   1.32983   1.33806
 Alpha virt. eigenvalues --    1.35663   1.37532   1.38110   1.40573   1.41165
 Alpha virt. eigenvalues --    1.42497   1.43897   1.46615   1.48144   1.50439
 Alpha virt. eigenvalues --    1.50860   1.53866   1.58540   1.58871   1.59962
 Alpha virt. eigenvalues --    1.62294   1.63851   1.65118   1.66492   1.69293
 Alpha virt. eigenvalues --    1.72042   1.72584   1.77521   1.78343   1.79834
 Alpha virt. eigenvalues --    1.82542   1.82795   1.83859   1.85898   1.87234
 Alpha virt. eigenvalues --    1.87928   1.93331   1.93928   1.96289   1.96783
 Alpha virt. eigenvalues --    2.00275   2.02482   2.02772   2.05776   2.09559
 Alpha virt. eigenvalues --    2.10023   2.12673   2.14535   2.15784   2.16628
 Alpha virt. eigenvalues --    2.20339   2.22470   2.24767   2.25955   2.32103
 Alpha virt. eigenvalues --    2.34600   2.36295   2.39767   2.42424   2.44189
 Alpha virt. eigenvalues --    2.45777   2.47587   2.48441   2.50247   2.51189
 Alpha virt. eigenvalues --    2.54263   2.58033   2.59373   2.61251   2.62154
 Alpha virt. eigenvalues --    2.64591   2.65629   2.68155   2.69610   2.71838
 Alpha virt. eigenvalues --    2.72534   2.74273   2.75737   2.79052   2.81299
 Alpha virt. eigenvalues --    2.83639   2.86482   2.87549   2.88999   2.91251
 Alpha virt. eigenvalues --    2.94214   2.95052   2.98031   2.99944   3.02795
 Alpha virt. eigenvalues --    3.07452   3.08904   3.12706   3.20610   3.27160
 Alpha virt. eigenvalues --    3.35217   3.40542   3.41538   3.45089   3.49226
 Alpha virt. eigenvalues --    3.52578   3.53150   3.55804   3.60015   3.61107
 Alpha virt. eigenvalues --    4.25125   4.32758   4.39856   4.51660   4.57906
 Alpha virt. eigenvalues --    4.59827   4.62277   4.74753   4.78925   4.97109
 Alpha virt. eigenvalues --    5.13429
          Condensed to atoms (all electrons):
              1          2          3          4          5          6
     1  C    5.686518  -0.190049  -0.231068   0.023315   0.022793  -0.208912
     2  C   -0.190049   6.631303  -0.513020   0.145133   0.271471  -0.628587
     3  C   -0.231068  -0.513020   6.364727  -0.212050  -0.428955   0.188436
     4  C    0.023315   0.145133  -0.212050   5.937111   0.110616  -0.271467
     5  C    0.022793   0.271471  -0.428955   0.110616   6.332943  -0.569079
     6  C   -0.208912  -0.628587   0.188436  -0.271467  -0.569079   7.124214
     7  O   -0.022129   0.086377   0.328161  -0.011868  -0.213564  -0.094656
     8  O    0.172237  -0.083432   0.346404   0.030727  -0.172344   0.015114
     9  O    0.019366  -0.019735  -0.018939  -0.021435   0.046751   0.135094
    10  O    0.004137   0.011101   0.061858   0.191438  -0.146342  -0.059166
    11  O    0.047979  -0.089001  -0.129855  -0.061848   0.181944   0.086047
    12  H    0.470784  -0.136884   0.012830   0.016166   0.004012  -0.013116
    13  H    0.380150   0.003428  -0.010441  -0.002455   0.001175   0.015647
    14  H    0.023730   0.321320   0.008755   0.010074  -0.002650  -0.020538
    15  H    0.016247   0.024277   0.353793   0.016769  -0.030227   0.000616
    16  H    0.004152  -0.025612   0.008594   0.339650  -0.039732   0.008000
    17  H   -0.004382  -0.022691  -0.011764   0.020480   0.256556   0.068598
    18  H    0.044155  -0.137035  -0.001899  -0.105448   0.021366   0.487553
    19  H    0.009930  -0.062381   0.000177  -0.059412   0.008503   0.091663
    20  H   -0.000639   0.023249  -0.011951   0.042822   0.027546  -0.079631
    21  H   -0.004764  -0.000266   0.038877  -0.056422   0.034270  -0.020649
              7          8          9         10         11         12
     1  C   -0.022129   0.172237   0.019366   0.004137   0.047979   0.470784
     2  C    0.086377  -0.083432  -0.019735   0.011101  -0.089001  -0.136884
     3  C    0.328161   0.346404  -0.018939   0.061858  -0.129855   0.012830
     4  C   -0.011868   0.030727  -0.021435   0.191438  -0.061848   0.016166
     5  C   -0.213564  -0.172344   0.046751  -0.146342   0.181944   0.004012
     6  C   -0.094656   0.015114   0.135094  -0.059166   0.086047  -0.013116
     7  O    8.355650  -0.071191   0.002433   0.002025   0.027213   0.013673
     8  O   -0.071191   8.281562  -0.001309  -0.003939  -0.020195  -0.050353
     9  O    0.002433  -0.001309   8.234362  -0.019468  -0.003533   0.001061
    10  O    0.002025  -0.003939  -0.019468   8.328991  -0.013437   0.000193
    11  O    0.027213  -0.020195  -0.003533  -0.013437   8.314977   0.001931
    12  H    0.013673  -0.050353   0.001061   0.000193   0.001931   0.543846
    13  H   -0.003818  -0.051233  -0.000488  -0.000010   0.000296  -0.039041
    14  H   -0.032046   0.006826  -0.001171  -0.000250   0.000440   0.002511
    15  H   -0.046192  -0.048600   0.000062  -0.000581   0.005252  -0.000279
    16  H    0.008403  -0.002732  -0.012151  -0.039641   0.008262   0.000007
    17  H    0.006637   0.002591  -0.000801   0.000482  -0.039856  -0.000013
    18  H    0.013826  -0.003588  -0.060660   0.001222   0.006687   0.003549
    19  H    0.004455  -0.000280   0.248772  -0.000843   0.000160  -0.000004
    20  H   -0.000168   0.000090   0.018127   0.234451  -0.000744  -0.000001
    21  H   -0.000994   0.000020  -0.000077   0.025635   0.230426  -0.000022
             13         14         15         16         17         18
     1  C    0.380150   0.023730   0.016247   0.004152  -0.004382   0.044155
     2  C    0.003428   0.321320   0.024277  -0.025612  -0.022691  -0.137035
     3  C   -0.010441   0.008755   0.353793   0.008594  -0.011764  -0.001899
     4  C   -0.002455   0.010074   0.016769   0.339650   0.020480  -0.105448
     5  C    0.001175  -0.002650  -0.030227  -0.039732   0.256556   0.021366
     6  C    0.015647  -0.020538   0.000616   0.008000   0.068598   0.487553
     7  O   -0.003818  -0.032046  -0.046192   0.008403   0.006637   0.013826
     8  O   -0.051233   0.006826  -0.048600  -0.002732   0.002591  -0.003588
     9  O   -0.000488  -0.001171   0.000062  -0.012151  -0.000801  -0.060660
    10  O   -0.000010  -0.000250  -0.000581  -0.039641   0.000482   0.001222
    11  O    0.000296   0.000440   0.005252   0.008262  -0.039856   0.006687
    12  H   -0.039041   0.002511  -0.000279   0.000007  -0.000013   0.003549
    13  H    0.531604  -0.004263   0.000185   0.000003   0.000008   0.000147
    14  H   -0.004263   0.486223  -0.000036  -0.000180   0.000007   0.001986
    15  H    0.000185  -0.000036   0.526313  -0.000041  -0.004599   0.000023
    16  H    0.000003  -0.000180  -0.000041   0.556856  -0.004273   0.004328
    17  H    0.000008   0.000007  -0.004599  -0.004273   0.567894  -0.000159
    18  H    0.000147   0.001986   0.000023   0.004328  -0.000159   0.526248
    19  H    0.000004   0.000194   0.000001   0.004883  -0.000019   0.006926
    20  H    0.000000  -0.000008   0.000004  -0.003660  -0.000237  -0.001400
    21  H    0.000000  -0.000006  -0.000223   0.000637  -0.002865   0.000169
             19         20         21
     1  C    0.009930  -0.000639  -0.004764
     2  C   -0.062381   0.023249  -0.000266
     3  C    0.000177  -0.011951   0.038877
     4  C   -0.059412   0.042822  -0.056422
     5  C    0.008503   0.027546   0.034270
     6  C    0.091663  -0.079631  -0.020649
     7  O    0.004455  -0.000168  -0.000994
     8  O   -0.000280   0.000090   0.000020
     9  O    0.248772   0.018127  -0.000077
    10  O   -0.000843   0.234451   0.025635
    11  O    0.000160  -0.000744   0.230426
    12  H   -0.000004  -0.000001  -0.000022
    13  H    0.000004   0.000000   0.000000
    14  H    0.000194  -0.000008  -0.000006
    15  H    0.000001   0.000004  -0.000223
    16  H    0.004883  -0.003660   0.000637
    17  H   -0.000019  -0.000237  -0.002865
    18  H    0.006926  -0.001400   0.000169
    19  H    0.366260  -0.000625   0.000002
    20  H   -0.000625   0.360847  -0.000921
    21  H    0.000002  -0.000921   0.365702
 Mulliken atomic charges:
              1
     1  C   -0.263551
     2  C    0.391034
     3  C   -0.142671
     4  C   -0.081896
     5  C    0.282947
     6  C   -0.255179
     7  O   -0.352230
     8  O   -0.346375
     9  O   -0.546261
    10  O   -0.577856
    11  O   -0.553145
    12  H    0.169152
    13  H    0.179101
    14  H    0.199084
    15  H    0.187237
    16  H    0.184247
    17  H    0.168404
    18  H    0.192004
    19  H    0.381634
    20  H    0.392849
    21  H    0.391470
 Sum of Mulliken atomic charges =   0.00000
 Mulliken charges with hydrogens summed into heavy atoms:
              1
     1  C    0.084702
     2  C    0.590118
     3  C    0.044567
     4  C    0.102351
     5  C    0.451351
     6  C   -0.063175
     7  O   -0.352230
     8  O   -0.346375
     9  O   -0.164627
    10  O   -0.185007
    11  O   -0.161675
 Sum of Mulliken charges with hydrogens summed into heavy atoms =   0.00000
 Electronic spatial extent (au):  <R**2>=           1443.8616
 Charge=              0.0000 electrons
 Dipole moment (field-independent basis, Debye):
    X=             -2.1303    Y=             -2.6423    Z=              1.3595  Tot=              3.6562
 Quadrupole moment (field-independent basis, Debye-Ang):
   XX=            -67.9359   YY=            -66.3859   ZZ=            -62.3840
   XY=             -3.1060   XZ=             -1.2548   YZ=              2.7168
 Traceless Quadrupole moment (field-independent basis, Debye-Ang):
   XX=             -2.3673   YY=             -0.8173   ZZ=              3.1846
   XY=             -3.1060   XZ=             -1.2548   YZ=              2.7168
 Octapole moment (field-independent basis, Debye-Ang**2):
  XXX=            -23.3998  YYY=            -10.6291  ZZZ=             -4.7071  XYY=              4.3139
  XXY=             -7.5393  XXZ=              4.6261  XZZ=             -5.7830  YZZ=              2.5740
  YYZ=             11.5962  XYZ=             20.7331
 Hexadecapole moment (field-independent basis, Debye-Ang**3):
 XXXX=           -842.9599 YYYY=           -645.5050 ZZZZ=           -258.2983 XXXY=             -3.7624
 XXXZ=              8.7397 YYYX=            -21.3538 YYYZ=            -22.2624 ZZZX=             -1.3106
 ZZZY=              1.3728 XXYY=           -267.8839 XXZZ=           -175.7003 YYZZ=           -144.7337
 XXYZ=             -8.8589 YYXZ=             -8.9688 ZZXY=              5.3315
 N-N= 7.256083767219D+02 E-N=-2.881062011738D+03  KE= 6.052084286200D+02
 1\1\GINC-COMPUTE-8-20\SP\RmPW1PW91\6-31+G(d,p)\C6H10O5\MMARCARINO.IQUI
 R\12-Apr-2019\0\\# mpw1pw91/6-31+g** nmr scrf=(pcm,solvent=water)\\com
 ment\\0,1\C,0,-1.655428,0.877239,-0.973209\C,0,-0.55902,1.374801,-0.00
 4802\C,0,-1.330718,-0.543117,0.784323\C,0,1.173163,-0.38229,0.450945\C
 ,0,-0.021889,-1.349633,0.476137\C,0,0.860623,0.874699,-0.373604\O,0,-0
 .978603,0.758504,1.233472\O,0,-2.126546,-0.337083,-0.365247\O,0,1.8861
 73,1.85336,-0.209756\O,0,2.284906,-1.096465,-0.081845\O,0,-0.141079,-2
 .017313,-0.770627\H,0,-1.275778,0.674702,-1.9794\H,0,-2.48967,1.582976
 ,-1.037185\H,0,-0.563501,2.457567,0.133067\H,0,-1.939021,-1.025112,1.5
 51346\H,0,1.382789,-0.067461,1.48265\H,0,0.137816,-2.077659,1.285626\H
 ,0,0.899661,0.616818,-1.435834\H,0,1.913784,2.105602,0.729278\H,0,2.95
 8178,-0.434372,-0.314671\H,0,0.776547,-2.23127,-1.021587\\Version=EM64
 L-G09RevC.01\State=1-A\HF=-610.6411327\RMSD=5.310e-09\Dipole=0.8381258
 ,1.0395499,0.5348578\Quadrupole=-1.7600429,-0.6076406,2.3676835,-2.309
 2371,0.9329484,-2.0198438\PG=C01 [X(C6H10O5)]\\@


 THERE'S NOTHING WRONG WITH FOLLOWING A TRAIN OF THOUGHT...
 AS LONG AS IT ULTIMATELY PULLS INTO THE STATION.
 Job cpu time:  0 days  0 hours 21 minutes 57.1 seconds.
 File lengths (MBytes):  RWF=     83 Int=      0 D2E=      0 Chk=      5 Scr=      1
 Normal termination of Gaussian 09 at Fri Apr 12 11:54:10 2019.
