 Entering Gaussian System, Link 0=g09
 Input=/home/asarotti.iquir/SCF3/05_SSR_Levo04_OPTB_energy_b3lyp_smd.gjc
 Output=/home/asarotti.iquir/SCF3/05_SSR_Levo04_OPTB_energy_b3lyp_smd.log
 Initial command:
 /share/apps/Gaussian09/EM64T.SSE4.2-enabled/g09/l1.exe /tmp/Gau-13044.inp -scrdir=/tmp/
 Entering Link 1 = /share/apps/Gaussian09/EM64T.SSE4.2-enabled/g09/l1.exe PID=     13045.
  
 Copyright (c) 1988,1990,1992,1993,1995,1998,2003,2009,2011,
            Gaussian, Inc.  All Rights Reserved.
  
 This is part of the Gaussian(R) 09 program.  It is based on
 the Gaussian(R) 03 system (copyright 2003, Gaussian, Inc.),
 the Gaussian(R) 98 system (copyright 1998, Gaussian, Inc.),
 the Gaussian(R) 94 system (copyright 1995, Gaussian, Inc.),
 the Gaussian 92(TM) system (copyright 1992, Gaussian, Inc.),
 the Gaussian 90(TM) system (copyright 1990, Gaussian, Inc.),
 the Gaussian 88(TM) system (copyright 1988, Gaussian, Inc.),
 the Gaussian 86(TM) system (copyright 1986, Carnegie Mellon
 University), and the Gaussian 82(TM) system (copyright 1983,
 Carnegie Mellon University). Gaussian is a federally registered
 trademark of Gaussian, Inc.
  
 This software contains proprietary and confidential information,
 including trade secrets, belonging to Gaussian, Inc.
  
 This software is provided under written license and may be
 used, copied, transmitted, or stored only in accord with that
 written license.
  
 The following legend is applicable only to US Government
 contracts under FAR:
  
                    RESTRICTED RIGHTS LEGEND
  
 Use, reproduction and disclosure by the US Government is
 subject to restrictions as set forth in subparagraphs (a)
 and (c) of the Commercial Computer Software - Restricted
 Rights clause in FAR 52.227-19.
  
 Gaussian, Inc.
 340 Quinnipiac St., Bldg. 40, Wallingford CT 06492
  
  
 ---------------------------------------------------------------
 Warning -- This program may not be used in any manner that
 competes with the business of Gaussian, Inc. or will provide
 assistance to any competitor of Gaussian, Inc.  The licensee
 of this program is prohibited from giving any competitor of
 Gaussian, Inc. access to this program.  By using this program,
 the user acknowledges that Gaussian, Inc. is engaged in the
 business of creating and licensing software in the field of
 computational chemistry and represents and warrants to the
 licensee that it is not a competitor of Gaussian, Inc. and that
 it will not use this program in any manner prohibited above.
 ---------------------------------------------------------------
  

 Cite this work as:
 Gaussian 09, Revision C.01,
 M. J. Frisch, G. W. Trucks, H. B. Schlegel, G. E. Scuseria, 
 M. A. Robb, J. R. Cheeseman, G. Scalmani, V. Barone, B. Mennucci, 
 G. A. Petersson, H. Nakatsuji, M. Caricato, X. Li, H. P. Hratchian, 
 A. F. Izmaylov, J. Bloino, G. Zheng, J. L. Sonnenberg, M. Hada, 
 M. Ehara, K. Toyota, R. Fukuda, J. Hasegawa, M. Ishida, T. Nakajima, 
 Y. Honda, O. Kitao, H. Nakai, T. Vreven, J. A. Montgomery, Jr., 
 J. E. Peralta, F. Ogliaro, M. Bearpark, J. J. Heyd, E. Brothers, 
 K. N. Kudin, V. N. Staroverov, T. Keith, R. Kobayashi, J. Normand, 
 K. Raghavachari, A. Rendell, J. C. Burant, S. S. Iyengar, J. Tomasi, 
 M. Cossi, N. Rega, J. M. Millam, M. Klene, J. E. Knox, J. B. Cross, 
 V. Bakken, C. Adamo, J. Jaramillo, R. Gomperts, R. E. Stratmann, 
 O. Yazyev, A. J. Austin, R. Cammi, C. Pomelli, J. W. Ochterski, 
 R. L. Martin, K. Morokuma, V. G. Zakrzewski, G. A. Voth, 
 P. Salvador, J. J. Dannenberg, S. Dapprich, A. D. Daniels, 
 O. Farkas, J. B. Foresman, J. V. Ortiz, J. Cioslowski, 
 and D. J. Fox, Gaussian, Inc., Wallingford CT, 2010.
 
 ******************************************
 Gaussian 09:  EM64L-G09RevC.01 23-Sep-2011
                16-Apr-2019 
 ******************************************
 %nprocshared=4
 Will use up to    4 processors via shared memory.
 -----------------------------------------------------------
 # B3LYP/6-31+G** test scrf=(pcm,solvent=water,smd,dovacuum)
 -----------------------------------------------------------
 1/38=1/1;
 2/12=2,17=6,18=5,40=1/2;
 3/5=1,6=6,7=111,11=2,16=1,25=1,30=1,70=32101,72=1,74=-5/1,2,3;
 4//1;
 5/5=2,38=5,53=1/2;
 6/7=2,8=2,9=2,10=2,28=1/1;
 99/5=1,9=1/99;
 -------
 comment
 -------
 Charge =  0 Multiplicity = 1
 Symbolic Z-Matrix:
 6                    -0.55319   1.50467   1.15355 
 6                    -1.41837   0.61264   0.25257 
 6                     0.45794   1.04914  -0.86322 
 6                     0.32526  -1.2427    0.23919 
 6                     1.01361  -0.38798  -0.8551 
 6                    -1.17952  -0.89902   0.38075 
 8                    -0.95137   0.99303  -1.0642 
 8                     0.64958   1.70206   0.38365 
 8                    -1.94213  -1.57407  -0.61735 
 8                     1.03286  -0.98704   1.46174 
 8                     2.4191   -0.4069   -0.69628 
 1                    -0.30736   1.04114   2.1104 
 1                    -1.02992   2.47629   1.32086 
 1                    -2.48521   0.83788   0.30581 
 1                     0.9103    1.64996  -1.65682 
 1                     0.41067  -2.30258  -0.02564 
 1                     0.78849  -0.82054  -1.83691 
 1                    -1.53518  -1.26618   1.34938 
 1                    -1.82826  -1.0594   -1.43608 
 1                     0.98494  -1.7842    2.01152 
 1                     2.5529   -0.4096    0.2706 
 
                          Input orientation:                          
 ---------------------------------------------------------------------
 Center     Atomic      Atomic             Coordinates (Angstroms)
 Number     Number       Type             X           Y           Z
 ---------------------------------------------------------------------
      1          6           0       -0.553193    1.504670    1.153547
      2          6           0       -1.418369    0.612635    0.252574
      3          6           0        0.457942    1.049143   -0.863221
      4          6           0        0.325264   -1.242698    0.239194
      5          6           0        1.013605   -0.387975   -0.855097
      6          6           0       -1.179521   -0.899016    0.380745
      7          8           0       -0.951374    0.993025   -1.064201
      8          8           0        0.649579    1.702061    0.383652
      9          8           0       -1.942130   -1.574071   -0.617350
     10          8           0        1.032863   -0.987036    1.461736
     11          8           0        2.419096   -0.406895   -0.696282
     12          1           0       -0.307359    1.041136    2.110395
     13          1           0       -1.029920    2.476285    1.320859
     14          1           0       -2.485213    0.837877    0.305806
     15          1           0        0.910301    1.649962   -1.656822
     16          1           0        0.410666   -2.302580   -0.025642
     17          1           0        0.788491   -0.820538   -1.836906
     18          1           0       -1.535184   -1.266176    1.349375
     19          1           0       -1.828264   -1.059403   -1.436081
     20          1           0        0.984944   -1.784204    2.011518
     21          1           0        2.552900   -0.409604    0.270604
 ---------------------------------------------------------------------
                    Distance matrix (angstroms):
                    1          2          3          4          5
     1  C    0.000000
     2  C    1.534929   0.000000
     3  C    2.301576   2.226226   0.000000
     4  C    3.025848   2.546114   2.546656   0.000000
     5  C    3.173580   2.853533   1.540823   1.549786   0.000000
     6  C    2.601387   1.535762   2.832677   1.550010   2.568710
     7  O    2.310570   1.447991   1.424680   2.885672   2.410815
     8  O    1.441653   2.341034   1.420464   2.966084   2.456678
     9  O    3.813642   2.410970   3.563994   2.446334   3.193700
    10  O    2.969706   3.166948   3.143562   1.435503   2.393107
    11  O    3.988791   4.082390   2.448273   2.440863   1.414562
    12  H    1.091264   2.206684   3.070528   3.019520   3.547034
    13  H    1.095124   2.182961   3.003444   4.103335   4.136999
    14  H    2.212686   1.091661   3.173865   3.497429   3.884860
    15  H    3.171923   3.185050   1.093350   3.507795   2.192401
    16  H    4.100569   3.452717   3.455115   1.095802   2.171922
    17  H    4.018646   3.360081   2.133784   2.168638   1.096237
    18  H    2.946225   2.178658   3.772113   2.166638   3.482421
    19  H    3.860887   2.411489   3.162416   2.734561   2.977344
    20  H    3.730774   3.822909   4.070591   1.967114   3.188692
    21  H    3.753911   4.100765   2.793269   2.378528   1.907118
                    6          7          8          9         10
     6  C    0.000000
     7  O    2.391598   0.000000
     8  O    3.179814   2.272017   0.000000
     9  O    1.425996   2.787697   4.295579   0.000000
    10  O    2.463926   3.773353   2.922399   3.676655   0.000000
    11  O    3.788432   3.668134   2.957219   4.515398   2.629686
    12  H    2.741632   3.239619   2.081873   4.117326   2.516036
    13  H    3.506972   2.809758   2.073282   4.581939   4.033548
    14  H    2.174223   2.062438   3.252660   2.639062   4.128358
    15  H    3.875090   2.061213   2.057723   4.428459   4.085852
    16  H    2.159592   3.714131   4.032586   2.533080   2.080884
    17  H    2.966008   2.629299   3.363581   3.084059   3.311869
    18  H    1.095238   3.357108   3.810019   2.031849   2.585616
    19  H    1.935833   2.262674   4.132411   0.973740   4.072914
    20  H    2.850945   4.574098   3.862183   3.939907   0.969553
    21  H    3.765982   4.003624   2.845090   4.727551   2.015623
                   11         12         13         14         15
    11  O    0.000000
    12  H    4.172264   0.000000
    13  H    4.927200   1.790283   0.000000
    14  H    5.158089   2.835649   2.415076   0.000000
    15  H    2.725759   4.005657   3.648815   4.005110   0.000000
    16  H    2.842036   4.032202   5.169710   4.284675   4.304994
    17  H    2.032485   4.499767   4.913974   4.249552   2.480048
    18  H    4.534248   2.722204   3.776522   2.533502   4.849895
    19  H    4.360406   4.393507   4.554027   2.658086   3.858643
    20  H    3.359457   3.108435   4.763240   4.671911   5.025514
    21  H    0.976104   3.697372   4.718897   5.190379   3.264187
                   16         17         18         19         20
    16  H    0.000000
    17  H    2.370628   0.000000
    18  H    2.598295   3.968683   0.000000
    19  H    2.923634   2.658030   2.808454   0.000000
    20  H    2.179112   3.972104   2.656658   4.508372   0.000000
    21  H    2.874071   2.779137   4.313919   4.746537   2.716393
                   21
    21  H    0.000000
 Stoichiometry    C6H10O5
 Framework group  C1[X(C6H10O5)]
 Deg. of freedom    57
 Full point group                 C1      NOp   1
 Largest Abelian subgroup         C1      NOp   1
 Largest concise Abelian subgroup C1      NOp   1
                         Standard orientation:                         
 ---------------------------------------------------------------------
 Center     Atomic      Atomic             Coordinates (Angstroms)
 Number     Number       Type             X           Y           Z
 ---------------------------------------------------------------------
      1          6           0       -0.553193    1.504670    1.153547
      2          6           0       -1.418369    0.612636    0.252574
      3          6           0        0.457942    1.049143   -0.863221
      4          6           0        0.325264   -1.242698    0.239194
      5          6           0        1.013605   -0.387975   -0.855097
      6          6           0       -1.179521   -0.899015    0.380745
      7          8           0       -0.951374    0.993025   -1.064201
      8          8           0        0.649579    1.702061    0.383652
      9          8           0       -1.942130   -1.574070   -0.617350
     10          8           0        1.032863   -0.987036    1.461736
     11          8           0        2.419096   -0.406895   -0.696282
     12          1           0       -0.307359    1.041136    2.110395
     13          1           0       -1.029919    2.476286    1.320859
     14          1           0       -2.485213    0.837878    0.305806
     15          1           0        0.910301    1.649962   -1.656822
     16          1           0        0.410665   -2.302580   -0.025642
     17          1           0        0.788491   -0.820538   -1.836906
     18          1           0       -1.535184   -1.266175    1.349375
     19          1           0       -1.828264   -1.059402   -1.436081
     20          1           0        0.984943   -1.784204    2.011518
     21          1           0        2.552900   -0.409604    0.270604
 ---------------------------------------------------------------------
 Rotational constants (GHZ):      1.4719205      1.2593188      1.0252496
 Standard basis: 6-31+G(d,p) (6D, 7F)
 There are   259 symmetry adapted basis functions of A   symmetry.
 Integral buffers will be    131072 words long.
 Raffenetti 2 integral format.
 Two-electron integral symmetry is turned on.
   259 basis functions,   422 primitive gaussians,   259 cartesian basis functions
    43 alpha electrons       43 beta electrons
       nuclear repulsion energy       734.4110120707 Hartrees.
 NAtoms=   21 NActive=   21 NUniq=   21 SFac= 1.00D+00 NAtFMM=   60 NAOKFM=F Big=F
 ------------------------------------------------------------------------------
 Polarizable Continuum Model (PCM)
 =================================
 Model                : C-PCM.
 Atomic radii         : SMD-Coulomb.
 Polarization charges : Total charges.
 Charge compensation  : None.
 Solution method      : Matrix inversion.
 Cavity type          : VdW (van der Waals Surface) (Alpha=1.000).
 Cavity algorithm     : GePol (No added spheres)
                        Default sphere list used, NSphG=   21.
                        Lebedev-Laikov grids with approx.  5.0 points / Ang**2.
                        Smoothing algorithm: Karplus/York (Gamma=1.0000).
                        Polarization charges: spherical gaussians, with
                                              point-specific exponents (IZeta= 3).
                        Self-potential: point-specific (ISelfS= 7).
                        Self-field    : sphere-specific E.n sum rule (ISelfD= 2).
 Solvent              : Water, Eps=  78.355300 Eps(inf)=   1.777849
 ------------------------------------------------------------------------------
 ------------------------------------------------------------------------------
 Atomic radii for non-electrostatic terms: SMD-CDS.
 ------------------------------------------------------------------------------
 Nuclear repulsion after PCM non-electrostatic terms =      734.4159801965 Hartrees.
 One-electron integrals computed using PRISM.
 NBasis=   259 RedAO= T  NBF=   259
 NBsUse=   259 1.00D-06 NBFU=   259
 Harris functional with IExCor=  402 diagonalized for initial guess.
 ExpMin= 4.38D-02 ExpMax= 5.48D+03 ExpMxC= 8.25D+02 IAcc=2 IRadAn=         4 AccDes= 0.00D+00
 HarFok:  IExCor=  402 AccDes= 0.00D+00 IRadAn=         4 IDoV= 1
 ScaDFX=  1.000000  1.000000  1.000000  1.000000
 FoFCou: FMM=F IPFlag=           0 FMFlag=      100000 FMFlg1=           0
         NFxFlg=           0 DoJE=T BraDBF=F KetDBF=T FulRan=T
         Omega=  0.000000  0.000000  1.000000  0.000000  0.000000 ICntrl=     500 IOpCl=  0
         NMat0=    1 NMatS0=    1 NMatT0=    0 NMatD0=    1 NMtDS0=    0 NMtDT0=    0
         I1Cent=           4 NGrid=           0.
 Petite list used in FoFCou.
 Initial guess orbital symmetries:
       Occupied  (A) (A) (A) (A) (A) (A) (A) (A) (A) (A) (A) (A)
                 (A) (A) (A) (A) (A) (A) (A) (A) (A) (A) (A) (A)
                 (A) (A) (A) (A) (A) (A) (A) (A) (A) (A) (A) (A)
                 (A) (A) (A) (A) (A) (A) (A)
       Virtual   (A) (A) (A) (A) (A) (A) (A) (A) (A) (A) (A) (A)
                 (A) (A) (A) (A) (A) (A) (A) (A) (A) (A) (A) (A)
                 (A) (A) (A) (A) (A) (A) (A) (A) (A) (A) (A) (A)
                 (A) (A) (A) (A) (A) (A) (A) (A) (A) (A) (A) (A)
                 (A) (A) (A) (A) (A) (A) (A) (A) (A) (A) (A) (A)
                 (A) (A) (A) (A) (A) (A) (A) (A) (A) (A) (A) (A)
                 (A) (A) (A) (A) (A) (A) (A) (A) (A) (A) (A) (A)
                 (A) (A) (A) (A) (A) (A) (A) (A) (A) (A) (A) (A)
                 (A) (A) (A) (A) (A) (A) (A) (A) (A) (A) (A) (A)
                 (A) (A) (A) (A) (A) (A) (A) (A) (A) (A) (A) (A)
                 (A) (A) (A) (A) (A) (A) (A) (A) (A) (A) (A) (A)
                 (A) (A) (A) (A) (A) (A) (A) (A) (A) (A) (A) (A)
                 (A) (A) (A) (A) (A) (A) (A) (A) (A) (A) (A) (A)
                 (A) (A) (A) (A) (A) (A) (A) (A) (A) (A) (A) (A)
                 (A) (A) (A) (A) (A) (A) (A) (A) (A) (A) (A) (A)
                 (A) (A) (A) (A) (A) (A) (A) (A) (A) (A) (A) (A)
                 (A) (A) (A) (A) (A) (A) (A) (A) (A) (A) (A) (A)
                 (A) (A) (A) (A) (A) (A) (A) (A) (A) (A) (A) (A)
 The electronic state of the initial guess is 1-A.
 Requested convergence on RMS density matrix=1.00D-08 within 128 cycles.
 Requested convergence on MAX density matrix=1.00D-06.
 Requested convergence on             energy=1.00D-06.
 No special actions if energy rises.
 Error on total polarization charges =  0.05694
 SCF Done:  E(RB3LYP) =  -610.807618750     A.U. after   12 cycles
             Convg  =    0.8129D-08             -V/T =  2.0090
 SMD-CDS (non-electrostatic) energy       (kcal/mol) =       3.12
 (included in total energy above)

 **********************************************************************

            Population analysis using the SCF density.

 **********************************************************************

 Orbital symmetries:
       Occupied  (A) (A) (A) (A) (A) (A) (A) (A) (A) (A) (A) (A)
                 (A) (A) (A) (A) (A) (A) (A) (A) (A) (A) (A) (A)
                 (A) (A) (A) (A) (A) (A) (A) (A) (A) (A) (A) (A)
                 (A) (A) (A) (A) (A) (A) (A)
       Virtual   (A) (A) (A) (A) (A) (A) (A) (A) (A) (A) (A) (A)
                 (A) (A) (A) (A) (A) (A) (A) (A) (A) (A) (A) (A)
                 (A) (A) (A) (A) (A) (A) (A) (A) (A) (A) (A) (A)
                 (A) (A) (A) (A) (A) (A) (A) (A) (A) (A) (A) (A)
                 (A) (A) (A) (A) (A) (A) (A) (A) (A) (A) (A) (A)
                 (A) (A) (A) (A) (A) (A) (A) (A) (A) (A) (A) (A)
                 (A) (A) (A) (A) (A) (A) (A) (A) (A) (A) (A) (A)
                 (A) (A) (A) (A) (A) (A) (A) (A) (A) (A) (A) (A)
                 (A) (A) (A) (A) (A) (A) (A) (A) (A) (A) (A) (A)
                 (A) (A) (A) (A) (A) (A) (A) (A) (A) (A) (A) (A)
                 (A) (A) (A) (A) (A) (A) (A) (A) (A) (A) (A) (A)
                 (A) (A) (A) (A) (A) (A) (A) (A) (A) (A) (A) (A)
                 (A) (A) (A) (A) (A) (A) (A) (A) (A) (A) (A) (A)
                 (A) (A) (A) (A) (A) (A) (A) (A) (A) (A) (A) (A)
                 (A) (A) (A) (A) (A) (A) (A) (A) (A) (A) (A) (A)
                 (A) (A) (A) (A) (A) (A) (A) (A) (A) (A) (A) (A)
                 (A) (A) (A) (A) (A) (A) (A) (A) (A) (A) (A) (A)
                 (A) (A) (A) (A) (A) (A) (A) (A) (A) (A) (A) (A)
 The electronic state is 1-A.
 Alpha  occ. eigenvalues --  -19.18501 -19.17468 -19.17258 -19.16983 -19.16782
 Alpha  occ. eigenvalues --  -10.29104 -10.25044 -10.24833 -10.24713 -10.24405
 Alpha  occ. eigenvalues --  -10.23897  -1.11075  -1.05276  -1.04086  -1.02344
 Alpha  occ. eigenvalues --   -1.00905  -0.79115  -0.77709  -0.67872  -0.65890
 Alpha  occ. eigenvalues --   -0.62416  -0.58990  -0.55559  -0.53200  -0.51977
 Alpha  occ. eigenvalues --   -0.50893  -0.48387  -0.45812  -0.45199  -0.44207
 Alpha  occ. eigenvalues --   -0.43328  -0.41684  -0.40630  -0.38634  -0.36934
 Alpha  occ. eigenvalues --   -0.36388  -0.35637  -0.33640  -0.32748  -0.31361
 Alpha  occ. eigenvalues --   -0.29272  -0.27250  -0.25971
 Alpha virt. eigenvalues --    0.00489   0.01475   0.02405   0.02743   0.04388
 Alpha virt. eigenvalues --    0.04980   0.05189   0.05530   0.05888   0.08285
 Alpha virt. eigenvalues --    0.08781   0.09198   0.10279   0.10976   0.11748
 Alpha virt. eigenvalues --    0.12385   0.12595   0.13572   0.14035   0.14478
 Alpha virt. eigenvalues --    0.14998   0.16053   0.16386   0.17049   0.17655
 Alpha virt. eigenvalues --    0.18814   0.19162   0.19303   0.20290   0.20679
 Alpha virt. eigenvalues --    0.21477   0.21697   0.22490   0.23295   0.23734
 Alpha virt. eigenvalues --    0.24195   0.24721   0.25280   0.25634   0.27071
 Alpha virt. eigenvalues --    0.27756   0.28154   0.28763   0.29251   0.30502
 Alpha virt. eigenvalues --    0.30970   0.31465   0.32043   0.32697   0.33104
 Alpha virt. eigenvalues --    0.33719   0.34433   0.35502   0.35868   0.35887
 Alpha virt. eigenvalues --    0.37050   0.37979   0.38456   0.39518   0.39576
 Alpha virt. eigenvalues --    0.40026   0.42479   0.43761   0.45739   0.48409
 Alpha virt. eigenvalues --    0.50247   0.63629   0.65970   0.66824   0.67323
 Alpha virt. eigenvalues --    0.69100   0.71733   0.73117   0.75356   0.77458
 Alpha virt. eigenvalues --    0.78774   0.80493   0.81856   0.82851   0.85614
 Alpha virt. eigenvalues --    0.87404   0.89337   0.95050   0.96183   0.98699
 Alpha virt. eigenvalues --    0.99210   1.02761   1.04296   1.04976   1.06734
 Alpha virt. eigenvalues --    1.09069   1.09586   1.10341   1.11211   1.12279
 Alpha virt. eigenvalues --    1.17536   1.19996   1.22463   1.23720   1.25751
 Alpha virt. eigenvalues --    1.27114   1.28686   1.29402   1.30528   1.32672
 Alpha virt. eigenvalues --    1.34213   1.35871   1.37731   1.38558   1.42523
 Alpha virt. eigenvalues --    1.43221   1.43375   1.44562   1.47122   1.50328
 Alpha virt. eigenvalues --    1.52793   1.55485   1.57173   1.59140   1.59701
 Alpha virt. eigenvalues --    1.62197   1.64100   1.66092   1.66423   1.67606
 Alpha virt. eigenvalues --    1.69458   1.72948   1.74200   1.75439   1.77359
 Alpha virt. eigenvalues --    1.79038   1.82425   1.85111   1.86656   1.88164
 Alpha virt. eigenvalues --    1.89499   1.92530   1.94391   1.97255   1.98109
 Alpha virt. eigenvalues --    2.01124   2.02849   2.04134   2.07338   2.07728
 Alpha virt. eigenvalues --    2.10768   2.12024   2.15792   2.16617   2.17127
 Alpha virt. eigenvalues --    2.20287   2.20479   2.22516   2.23592   2.28193
 Alpha virt. eigenvalues --    2.31794   2.33433   2.37499   2.40655   2.42553
 Alpha virt. eigenvalues --    2.44259   2.48552   2.49467   2.49993   2.52506
 Alpha virt. eigenvalues --    2.54919   2.56292   2.60480   2.60758   2.61736
 Alpha virt. eigenvalues --    2.64582   2.66256   2.67242   2.69287   2.70564
 Alpha virt. eigenvalues --    2.72663   2.74603   2.75129   2.78134   2.80679
 Alpha virt. eigenvalues --    2.81455   2.84850   2.86720   2.88392   2.89579
 Alpha virt. eigenvalues --    2.93695   2.94360   2.98280   2.99964   3.01095
 Alpha virt. eigenvalues --    3.02652   3.04695   3.09810   3.14018   3.22668
 Alpha virt. eigenvalues --    3.34920   3.40029   3.45071   3.46396   3.48063
 Alpha virt. eigenvalues --    3.49593   3.52037   3.55800   3.57461   3.59481
 Alpha virt. eigenvalues --    4.29723   4.30336   4.41384   4.45680   4.48829
 Alpha virt. eigenvalues --    4.51757   4.61904   4.79280   4.88442   4.92848
 Alpha virt. eigenvalues --    4.99768
          Condensed to atoms (all electrons):
              1          2          3          4          5          6
     1  C    5.696193  -0.345555  -0.473119  -0.389640   0.379935   0.152438
     2  C   -0.345555   7.009590  -0.376888   0.936077  -0.273138  -1.116778
     3  C   -0.473119  -0.376888   7.161326   0.379832  -1.638200   0.326909
     4  C   -0.389640   0.936077   0.379832   6.982998  -0.832783  -1.184000
     5  C    0.379935  -0.273138  -1.638200  -0.832783   7.678216   0.011657
     6  C    0.152438  -1.116778   0.326909  -1.184000   0.011657   7.298099
     7  O   -0.009456   0.088997   0.204082  -0.082726  -0.012774  -0.078426
     8  O    0.141624  -0.125517   0.314011   0.099402  -0.207327  -0.037832
     9  O    0.015084  -0.116100  -0.022964  -0.089920   0.037195   0.265935
    10  O    0.035031  -0.111993   0.021862  -0.029934  -0.090795   0.120053
    11  O    0.016817  -0.018951  -0.145873  -0.142689   0.314178   0.043183
    12  H    0.484340  -0.181055   0.008184  -0.068591   0.028848   0.086400
    13  H    0.412805  -0.007978  -0.025204   0.003999   0.005827  -0.011597
    14  H   -0.001984   0.335271   0.017209  -0.002449  -0.000353  -0.016709
    15  H    0.007987   0.039794   0.354419   0.036932  -0.038395  -0.031704
    16  H   -0.001684  -0.007516   0.018442   0.339006  -0.043735   0.016551
    17  H    0.011560  -0.021630  -0.088613  -0.089641   0.496062   0.012408
    18  H    0.017736  -0.043001  -0.034670  -0.059211   0.055491   0.391935
    19  H    0.005158  -0.015129  -0.010580  -0.018650   0.021802  -0.003948
    20  H   -0.008324   0.026271  -0.006596   0.076883   0.005759  -0.072987
    21  H    0.006208  -0.013411  -0.020999  -0.071093   0.049265   0.020243
              7          8          9         10         11         12
     1  C   -0.009456   0.141624   0.015084   0.035031   0.016817   0.484340
     2  C    0.088997  -0.125517  -0.116100  -0.111993  -0.018951  -0.181055
     3  C    0.204082   0.314011  -0.022964   0.021862  -0.145873   0.008184
     4  C   -0.082726   0.099402  -0.089920  -0.029934  -0.142689  -0.068591
     5  C   -0.012774  -0.207327   0.037195  -0.090795   0.314178   0.028848
     6  C   -0.078426  -0.037832   0.265935   0.120053   0.043183   0.086400
     7  O    8.378374  -0.041643  -0.004962   0.010596   0.005232   0.010848
     8  O   -0.041643   8.419730  -0.001405   0.002471   0.019267  -0.043896
     9  O   -0.004962  -0.001405   8.290925   0.005905  -0.001130   0.000251
    10  O    0.010596   0.002471   0.005905   8.501455  -0.008201  -0.000038
    11  O    0.005232   0.019267  -0.001130  -0.008201   8.314522  -0.000009
    12  H    0.010848  -0.043896   0.000251  -0.000038  -0.000009   0.536284
    13  H   -0.001440  -0.050006  -0.000246   0.000737   0.000023  -0.040183
    14  H   -0.034022   0.007118   0.004677  -0.000294   0.000041   0.002375
    15  H   -0.038337  -0.050296   0.000191  -0.000642   0.001872  -0.000276
    16  H   -0.001374  -0.000552  -0.001818  -0.033129   0.007714  -0.000023
    17  H    0.004056   0.009512   0.001205   0.007101  -0.060117  -0.000018
    18  H    0.009831  -0.000620  -0.053248  -0.002999  -0.000814   0.000149
    19  H    0.025659  -0.000504   0.253416  -0.000320  -0.000204  -0.000014
    20  H   -0.000298   0.001532   0.000074   0.230242  -0.001748  -0.000442
    21  H    0.000156   0.001862  -0.000006   0.029508   0.251762   0.000012
             13         14         15         16         17         18
     1  C    0.412805  -0.001984   0.007987  -0.001684   0.011560   0.017736
     2  C   -0.007978   0.335271   0.039794  -0.007516  -0.021630  -0.043001
     3  C   -0.025204   0.017209   0.354419   0.018442  -0.088613  -0.034670
     4  C    0.003999  -0.002449   0.036932   0.339006  -0.089641  -0.059211
     5  C    0.005827  -0.000353  -0.038395  -0.043735   0.496062   0.055491
     6  C   -0.011597  -0.016709  -0.031704   0.016551   0.012408   0.391935
     7  O   -0.001440  -0.034022  -0.038337  -0.001374   0.004056   0.009831
     8  O   -0.050006   0.007118  -0.050296  -0.000552   0.009512  -0.000620
     9  O   -0.000246   0.004677   0.000191  -0.001818   0.001205  -0.053248
    10  O    0.000737  -0.000294  -0.000642  -0.033129   0.007101  -0.002999
    11  O    0.000023   0.000041   0.001872   0.007714  -0.060117  -0.000814
    12  H   -0.040183   0.002375  -0.000276  -0.000023  -0.000018   0.000149
    13  H    0.552434  -0.004281   0.000281   0.000003   0.000015   0.000032
    14  H   -0.004281   0.517052  -0.000042  -0.000139   0.000011  -0.001725
    15  H    0.000281  -0.000042   0.552816  -0.000142  -0.003321   0.000022
    16  H    0.000003  -0.000139  -0.000142   0.558360  -0.005813  -0.004161
    17  H    0.000015   0.000011  -0.003321  -0.005813   0.540726  -0.000135
    18  H    0.000032  -0.001725   0.000022  -0.004161  -0.000135   0.543790
    19  H   -0.000005  -0.001390   0.000068  -0.000809  -0.000576   0.006090
    20  H    0.000001  -0.000004   0.000010  -0.010044  -0.000160   0.001730
    21  H    0.000002   0.000001  -0.000275  -0.000494   0.006248  -0.000022
             19         20         21
     1  C    0.005158  -0.008324   0.006208
     2  C   -0.015129   0.026271  -0.013411
     3  C   -0.010580  -0.006596  -0.020999
     4  C   -0.018650   0.076883  -0.071093
     5  C    0.021802   0.005759   0.049265
     6  C   -0.003948  -0.072987   0.020243
     7  O    0.025659  -0.000298   0.000156
     8  O   -0.000504   0.001532   0.001862
     9  O    0.253416   0.000074  -0.000006
    10  O   -0.000320   0.230242   0.029508
    11  O   -0.000204  -0.001748   0.251762
    12  H   -0.000014  -0.000442   0.000012
    13  H   -0.000005   0.000001   0.000002
    14  H   -0.001390  -0.000004   0.000001
    15  H    0.000068   0.000010  -0.000275
    16  H   -0.000809  -0.010044  -0.000494
    17  H   -0.000576  -0.000160   0.006248
    18  H    0.006090   0.001730  -0.000022
    19  H    0.338340   0.000003  -0.000002
    20  H    0.000003   0.320969  -0.000877
    21  H   -0.000002  -0.000877   0.334783
 Mulliken atomic charges:
              1
     1  C   -0.153154
     2  C    0.338640
     3  C    0.037427
     4  C    0.206199
     5  C    0.053264
     6  C   -0.191829
     7  O   -0.432373
     8  O   -0.456932
     9  O   -0.583058
    10  O   -0.686617
    11  O   -0.594877
    12  H    0.176853
    13  H    0.164781
    14  H    0.179636
    15  H    0.169038
    16  H    0.171356
    17  H    0.181119
    18  H    0.173800
    19  H    0.401595
    20  H    0.438006
    21  H    0.407127
 Sum of Mulliken atomic charges =   0.00000
 Mulliken charges with hydrogens summed into heavy atoms:
              1
     1  C    0.188480
     2  C    0.518276
     3  C    0.206465
     4  C    0.377555
     5  C    0.234383
     6  C   -0.018029
     7  O   -0.432373
     8  O   -0.456932
     9  O   -0.181463
    10  O   -0.248611
    11  O   -0.187749
 Sum of Mulliken charges with hydrogens summed into heavy atoms =   0.00000
 Electronic spatial extent (au):  <R**2>=           1369.1821
 Charge=              0.0000 electrons
 Dipole moment (field-independent basis, Debye):
    X=             -2.4567    Y=             -1.8159    Z=              2.8078  Tot=              4.1493
 Quadrupole moment (field-independent basis, Debye-Ang):
   XX=            -75.2971   YY=            -66.1650   ZZ=            -58.1216
   XY=             -7.4984   XZ=             -0.5124   YZ=             -4.2723
 Traceless Quadrupole moment (field-independent basis, Debye-Ang):
   XX=             -8.7692   YY=              0.3629   ZZ=              8.4063
   XY=             -7.4984   XZ=             -0.5124   YZ=             -4.2723
 Octapole moment (field-independent basis, Debye-Ang**2):
  XXX=            -12.1014  YYY=            -10.2504  ZZZ=              4.7947  XYY=             10.0457
  XXY=             13.2585  XXZ=             18.8336  XZZ=             -2.9560  YZZ=            -11.2242
  YYZ=             15.6963  XYZ=            -10.4642
 Hexadecapole moment (field-independent basis, Debye-Ang**3):
 XXXX=           -783.4807 YYYY=           -602.7822 ZZZZ=           -337.8573 XXXY=            -28.8034
 XXXZ=             45.5627 YYYX=            -46.4696 YYYZ=            -34.5837 ZZZX=             15.6565
 ZZZY=            -17.9439 XXYY=           -248.9460 XXZZ=           -183.5946 YYZZ=           -132.1239
 XXYZ=            -14.1299 YYXZ=             -6.7702 ZZXY=              2.1434
 N-N= 7.344159801965D+02 E-N=-2.898810274075D+03  KE= 6.053533777978D+02

 Test job not archived.
 1\1\GINC-COMPUTE-10-1\SP\RB3LYP\6-31+G(d,p)\C6H10O5\ASAROTTI.IQUIR\16-
 Apr-2019\0\\# B3LYP/6-31+G** test scrf=(pcm,solvent=water,smd,dovacuum
 )\\comment\\0,1\C,0,-0.553193,1.50467,1.153547\C,0,-1.418369,0.612635,
 0.252574\C,0,0.457942,1.049143,-0.863221\C,0,0.325264,-1.242698,0.2391
 94\C,0,1.013605,-0.387975,-0.855097\C,0,-1.179521,-0.899016,0.380745\O
 ,0,-0.951374,0.993025,-1.064201\O,0,0.649579,1.702061,0.383652\O,0,-1.
 94213,-1.574071,-0.61735\O,0,1.032863,-0.987036,1.461736\O,0,2.419096,
 -0.406895,-0.696282\H,0,-0.307359,1.041136,2.110395\H,0,-1.02992,2.476
 285,1.320859\H,0,-2.485213,0.837877,0.305806\H,0,0.910301,1.649962,-1.
 656822\H,0,0.410666,-2.30258,-0.025642\H,0,0.788491,-0.820538,-1.83690
 6\H,0,-1.535184,-1.266176,1.349375\H,0,-1.828264,-1.059403,-1.436081\H
 ,0,0.984944,-1.784204,2.011518\H,0,2.5529,-0.409604,0.270604\\Version=
 EM64L-G09RevC.01\State=1-A\HF=-610.8076187\RMSD=8.129e-09\Dipole=-0.96
 65324,-0.714424,1.1046652\Quadrupole=-6.5197058,0.2698184,6.2498874,-5
 .5748465,-0.3809769,-3.1763715\PG=C01 [X(C6H10O5)]\\@


 MICHAEL FARADAY, ASKED BY A POLITICIAN WHAT GOOD
 HIS ELECTRICAL DISCOVERIES WERE, REPLIED 
 "AT PRESENT I DO NOT KNOW, BUT ONE DAY YOU WILL BE
 ABLE TO TAX THEM."
 Job cpu time:  0 days  0 hours 14 minutes 57.5 seconds.
 File lengths (MBytes):  RWF=     56 Int=      0 D2E=      0 Chk=      4 Scr=      1
 Normal termination of Gaussian 09 at Tue Apr 16 02:39:06 2019.
