 Entering Gaussian System, Link 0=g09
 Input=/home/mmarcarino.iquir/NMR/05_SSR_Levo05_OPTB_nmr.gjc
 Output=/home/mmarcarino.iquir/NMR/05_SSR_Levo05_OPTB_nmr.log
 Initial command:
 /share/apps/Gaussian09/EM64T.SSE4.2-enabled/g09/l1.exe /tmp/Gau-33438.inp -scrdir=/tmp/
 Entering Link 1 = /share/apps/Gaussian09/EM64T.SSE4.2-enabled/g09/l1.exe PID=     33439.
  
 Copyright (c) 1988,1990,1992,1993,1995,1998,2003,2009,2011,
            Gaussian, Inc.  All Rights Reserved.
  
 This is part of the Gaussian(R) 09 program.  It is based on
 the Gaussian(R) 03 system (copyright 2003, Gaussian, Inc.),
 the Gaussian(R) 98 system (copyright 1998, Gaussian, Inc.),
 the Gaussian(R) 94 system (copyright 1995, Gaussian, Inc.),
 the Gaussian 92(TM) system (copyright 1992, Gaussian, Inc.),
 the Gaussian 90(TM) system (copyright 1990, Gaussian, Inc.),
 the Gaussian 88(TM) system (copyright 1988, Gaussian, Inc.),
 the Gaussian 86(TM) system (copyright 1986, Carnegie Mellon
 University), and the Gaussian 82(TM) system (copyright 1983,
 Carnegie Mellon University). Gaussian is a federally registered
 trademark of Gaussian, Inc.
  
 This software contains proprietary and confidential information,
 including trade secrets, belonging to Gaussian, Inc.
  
 This software is provided under written license and may be
 used, copied, transmitted, or stored only in accord with that
 written license.
  
 The following legend is applicable only to US Government
 contracts under FAR:
  
                    RESTRICTED RIGHTS LEGEND
  
 Use, reproduction and disclosure by the US Government is
 subject to restrictions as set forth in subparagraphs (a)
 and (c) of the Commercial Computer Software - Restricted
 Rights clause in FAR 52.227-19.
  
 Gaussian, Inc.
 340 Quinnipiac St., Bldg. 40, Wallingford CT 06492
  
  
 ---------------------------------------------------------------
 Warning -- This program may not be used in any manner that
 competes with the business of Gaussian, Inc. or will provide
 assistance to any competitor of Gaussian, Inc.  The licensee
 of this program is prohibited from giving any competitor of
 Gaussian, Inc. access to this program.  By using this program,
 the user acknowledges that Gaussian, Inc. is engaged in the
 business of creating and licensing software in the field of
 computational chemistry and represents and warrants to the
 licensee that it is not a competitor of Gaussian, Inc. and that
 it will not use this program in any manner prohibited above.
 ---------------------------------------------------------------
  

 Cite this work as:
 Gaussian 09, Revision C.01,
 M. J. Frisch, G. W. Trucks, H. B. Schlegel, G. E. Scuseria, 
 M. A. Robb, J. R. Cheeseman, G. Scalmani, V. Barone, B. Mennucci, 
 G. A. Petersson, H. Nakatsuji, M. Caricato, X. Li, H. P. Hratchian, 
 A. F. Izmaylov, J. Bloino, G. Zheng, J. L. Sonnenberg, M. Hada, 
 M. Ehara, K. Toyota, R. Fukuda, J. Hasegawa, M. Ishida, T. Nakajima, 
 Y. Honda, O. Kitao, H. Nakai, T. Vreven, J. A. Montgomery, Jr., 
 J. E. Peralta, F. Ogliaro, M. Bearpark, J. J. Heyd, E. Brothers, 
 K. N. Kudin, V. N. Staroverov, T. Keith, R. Kobayashi, J. Normand, 
 K. Raghavachari, A. Rendell, J. C. Burant, S. S. Iyengar, J. Tomasi, 
 M. Cossi, N. Rega, J. M. Millam, M. Klene, J. E. Knox, J. B. Cross, 
 V. Bakken, C. Adamo, J. Jaramillo, R. Gomperts, R. E. Stratmann, 
 O. Yazyev, A. J. Austin, R. Cammi, C. Pomelli, J. W. Ochterski, 
 R. L. Martin, K. Morokuma, V. G. Zakrzewski, G. A. Voth, 
 P. Salvador, J. J. Dannenberg, S. Dapprich, A. D. Daniels, 
 O. Farkas, J. B. Foresman, J. V. Ortiz, J. Cioslowski, 
 and D. J. Fox, Gaussian, Inc., Wallingford CT, 2010.
 
 ******************************************
 Gaussian 09:  EM64L-G09RevC.01 23-Sep-2011
                12-Apr-2019 
 ******************************************
 %nprocshared=4
 Will use up to    4 processors via shared memory.
 ------------------------------------------------
 # mpw1pw91/6-31+g** nmr scrf=(pcm,solvent=water)
 ------------------------------------------------
 1/38=1/1;
 2/12=2,17=6,18=5,40=1/2;
 3/5=1,6=6,7=111,11=2,16=1,25=1,30=1,70=2201,72=1,74=-7/1,2,8,3;
 4//1;
 5/5=2,38=5,53=1/2;
 8/6=1,10=90,11=11/1;
 10/13=100,45=16/2;
 6/7=2,8=2,9=2,10=2,28=1/1;
 99/9=1/99;
 -------
 comment
 -------
 Charge =  0 Multiplicity = 1
 Symbolic Z-Matrix:
 6                    -0.49127   1.57608   1.09485 
 6                    -1.36021   0.76545   0.11952 
 6                     0.62985   0.99789  -0.82504 
 6                     0.17682  -1.2607    0.2644 
 6                     1.00148  -0.49675  -0.79711 
 6                    -1.28432  -0.7495    0.33526 
 8                    -0.74495   1.09631  -1.14258 
 8                     0.79362   1.62229   0.44126 
 8                    -2.09131  -1.34052  -0.67947 
 8                     0.75882  -1.12037   1.55525 
 8                     2.36907  -0.72361  -0.4663 
 1                    -0.38664   1.1082    2.07498 
 1                    -0.8707    2.59742   1.20616 
 1                    -2.40072   1.09217   0.07913 
 1                     1.21023   1.54888  -1.57318 
 1                     0.15501  -2.32638  -0.01472 
 1                     0.76528  -0.90166  -1.79032 
 1                    -1.67006  -0.98937   1.33677 
 1                    -2.14919  -2.29104  -0.49056 
 1                     1.70146  -0.93009   1.39512 
 1                     2.92912  -0.17592  -1.03995 
 
                          Input orientation:                          
 ---------------------------------------------------------------------
 Center     Atomic      Atomic             Coordinates (Angstroms)
 Number     Number       Type             X           Y           Z
 ---------------------------------------------------------------------
      1          6           0       -0.491266    1.576081    1.094845
      2          6           0       -1.360211    0.765452    0.119520
      3          6           0        0.629849    0.997894   -0.825037
      4          6           0        0.176817   -1.260697    0.264395
      5          6           0        1.001485   -0.496745   -0.797107
      6          6           0       -1.284316   -0.749497    0.335262
      7          8           0       -0.744954    1.096312   -1.142585
      8          8           0        0.793624    1.622290    0.441255
      9          8           0       -2.091306   -1.340515   -0.679467
     10          8           0        0.758824   -1.120373    1.555254
     11          8           0        2.369070   -0.723607   -0.466295
     12          1           0       -0.386636    1.108197    2.074979
     13          1           0       -0.870704    2.597423    1.206157
     14          1           0       -2.400725    1.092171    0.079128
     15          1           0        1.210232    1.548877   -1.573181
     16          1           0        0.155006   -2.326381   -0.014721
     17          1           0        0.765280   -0.901658   -1.790323
     18          1           0       -1.670057   -0.989370    1.336770
     19          1           0       -2.149194   -2.291043   -0.490556
     20          1           0        1.701461   -0.930087    1.395123
     21          1           0        2.929119   -0.175917   -1.039951
 ---------------------------------------------------------------------
                    Distance matrix (angstroms):
                    1          2          3          4          5
     1  C    0.000000
     2  C    1.537350   0.000000
     3  C    2.297204   2.215075   0.000000
     4  C    3.030395   2.547297   2.548202   0.000000
     5  C    3.178741   2.830363   1.540402   1.546120   0.000000
     6  C    2.571810   1.532115   2.839665   1.549599   2.563402
     7  O    2.302309   1.442539   1.414428   2.895643   2.388982
     8  O    1.442310   2.340233   1.421333   2.953531   2.463139
     9  O    3.770258   2.368117   3.590826   2.457972   3.207981
    10  O    3.007585   3.179305   3.188961   1.422934   2.445690
    11  O    3.988389   4.058080   2.473288   2.372414   1.425199
    12  H    1.091112   2.211141   3.074980   3.034362   3.570938
    13  H    1.095218   2.185524   2.989298   4.107226   4.134251
    14  H    2.216277   1.091351   3.163982   3.494858   3.855836
    15  H    3.164522   3.175873   1.095512   3.512597   2.197825
    16  H    4.108286   3.445771   3.454402   1.101846   2.162458
    17  H    4.005283   3.308242   2.135045   2.167271   1.098283
    18  H    2.833657   2.158032   3.729906   2.152801   3.454453
    19  H    4.496317   3.215097   4.318804   2.653656   3.638716
    20  H    3.343516   3.725030   3.129628   1.926756   2.341714
    21  H    4.396122   4.541905   2.590495   3.233146   1.969182
                    6          7          8          9         10
     6  C    0.000000
     7  O    2.425274   0.000000
     8  O    3.155066   2.269895   0.000000
     9  O    1.424854   2.822281   4.284513   0.000000
    10  O    2.408392   3.801760   2.960474   3.628454   0.000000
    11  O    3.740373   3.669689   2.967981   4.507879   2.614761
    12  H    2.698791   3.237476   2.079990   4.060673   2.559046
    13  H    3.483017   2.790293   2.075078   4.533520   4.074216
    14  H    2.168805   2.057712   3.258225   2.566937   4.130018
    15  H    3.891972   2.052555   2.058374   4.477439   4.137121
    16  H    2.163492   3.714409   4.025885   2.541601   2.069752
    17  H    2.956706   2.586939   3.369133   3.096236   3.352725
    18  H    1.099706   3.369434   3.700330   2.089489   2.442204
    19  H    1.950988   3.724407   4.984238   0.970846   3.743311
    20  H    3.173450   4.065858   2.872048   4.342517   0.974892
    21  H    4.469143   3.889462   3.160357   5.166324   3.512445
                   11         12         13         14         15
    11  O    0.000000
    12  H    4.172229   0.000000
    13  H    4.931782   1.790801   0.000000
    14  H    5.132785   2.835530   2.424241   0.000000
    15  H    2.780699   4.006652   3.626908   3.997214   0.000000
    16  H    2.770358   4.056667   5.175565   4.269317   4.308123
    17  H    2.087318   4.506327   4.888651   4.182558   2.500051
    18  H    4.431278   2.567471   3.677106   2.539361   4.817321
    19  H    4.782484   4.609058   5.330147   3.440050   5.215631
    20  H    1.988269   2.996157   4.369790   4.759128   3.898384
    21  H    0.970928   4.727152   5.212971   5.591746   2.492754
                   16         17         18         19         20
    16  H    0.000000
    17  H    2.356912   0.000000
    18  H    2.635333   3.964501   0.000000
    19  H    2.353084   3.480509   2.294133   0.000000
    20  H    2.515715   3.320288   3.372544   4.498392   0.000000
    21  H    3.656678   2.402490   5.240508   5.528549   2.829400
                   21
    21  H    0.000000
 Stoichiometry    C6H10O5
 Framework group  C1[X(C6H10O5)]
 Deg. of freedom    57
 Full point group                 C1      NOp   1
 Largest Abelian subgroup         C1      NOp   1
 Largest concise Abelian subgroup C1      NOp   1
                         Standard orientation:                         
 ---------------------------------------------------------------------
 Center     Atomic      Atomic             Coordinates (Angstroms)
 Number     Number       Type             X           Y           Z
 ---------------------------------------------------------------------
      1          6           0       -0.491266    1.576081    1.094845
      2          6           0       -1.360211    0.765452    0.119520
      3          6           0        0.629849    0.997894   -0.825037
      4          6           0        0.176817   -1.260697    0.264395
      5          6           0        1.001485   -0.496745   -0.797107
      6          6           0       -1.284316   -0.749497    0.335262
      7          8           0       -0.744954    1.096312   -1.142585
      8          8           0        0.793624    1.622290    0.441255
      9          8           0       -2.091306   -1.340514   -0.679467
     10          8           0        0.758824   -1.120373    1.555254
     11          8           0        2.369070   -0.723607   -0.466295
     12          1           0       -0.386636    1.108197    2.074979
     13          1           0       -0.870703    2.597423    1.206157
     14          1           0       -2.400725    1.092172    0.079128
     15          1           0        1.210232    1.548877   -1.573181
     16          1           0        0.155006   -2.326381   -0.014721
     17          1           0        0.765280   -0.901658   -1.790323
     18          1           0       -1.670057   -0.989370    1.336770
     19          1           0       -2.149194   -2.291042   -0.490556
     20          1           0        1.701461   -0.930087    1.395123
     21          1           0        2.929119   -0.175918   -1.039951
 ---------------------------------------------------------------------
 Rotational constants (GHZ):      1.4710090      1.2622399      1.0119521
 Standard basis: 6-31+G(d,p) (6D, 7F)
 There are   259 symmetry adapted basis functions of A   symmetry.
 Integral buffers will be    131072 words long.
 Raffenetti 2 integral format.
 Two-electron integral symmetry is turned on.
   259 basis functions,   422 primitive gaussians,   259 cartesian basis functions
    43 alpha electrons       43 beta electrons
       nuclear repulsion energy       733.3630408254 Hartrees.
 NAtoms=   21 NActive=   21 NUniq=   21 SFac= 1.00D+00 NAtFMM=   60 NAOKFM=F Big=F
 ------------------------------------------------------------------------------
 Polarizable Continuum Model (PCM)
 =================================
 Model                : PCM.
 Atomic radii         : UFF (Universal Force Field).
 Polarization charges : Total charges.
 Charge compensation  : None.
 Solution method      : Matrix inversion.
 Cavity type          : Scaled VdW (van der Waals Surface) (Alpha=1.100).
 Cavity algorithm     : GePol (No added spheres)
                        Default sphere list used, NSphG=   21.
                        Lebedev-Laikov grids with approx.  5.0 points / Ang**2.
                        Smoothing algorithm: Karplus/York (Gamma=1.0000).
                        Polarization charges: spherical gaussians, with
                                              point-specific exponents (IZeta= 3).
                        Self-potential: point-specific (ISelfS= 7).
                        Self-field    : sphere-specific E.n sum rule (ISelfD= 2).
 Solvent              : Water, Eps=  78.355300 Eps(inf)=   1.777849
 ------------------------------------------------------------------------------
 One-electron integrals computed using PRISM.
 NBasis=   259 RedAO= T  NBF=   259
 NBsUse=   259 1.00D-06 NBFU=   259
 Harris functional with IExCor=  908 diagonalized for initial guess.
 ExpMin= 4.38D-02 ExpMax= 5.48D+03 ExpMxC= 8.25D+02 IAcc=2 IRadAn=         4 AccDes= 0.00D+00
 HarFok:  IExCor=  908 AccDes= 0.00D+00 IRadAn=         4 IDoV= 1
 ScaDFX=  1.000000  1.000000  1.000000  1.000000
 FoFCou: FMM=F IPFlag=           0 FMFlag=      100000 FMFlg1=           0
         NFxFlg=           0 DoJE=T BraDBF=F KetDBF=T FulRan=T
         Omega=  0.000000  0.000000  1.000000  0.000000  0.000000 ICntrl=     500 IOpCl=  0
         NMat0=    1 NMatS0=    1 NMatT0=    0 NMatD0=    1 NMtDS0=    0 NMtDT0=    0
         I1Cent=           4 NGrid=           0.
 Petite list used in FoFCou.
 Initial guess orbital symmetries:
       Occupied  (A) (A) (A) (A) (A) (A) (A) (A) (A) (A) (A) (A)
                 (A) (A) (A) (A) (A) (A) (A) (A) (A) (A) (A) (A)
                 (A) (A) (A) (A) (A) (A) (A) (A) (A) (A) (A) (A)
                 (A) (A) (A) (A) (A) (A) (A)
       Virtual   (A) (A) (A) (A) (A) (A) (A) (A) (A) (A) (A) (A)
                 (A) (A) (A) (A) (A) (A) (A) (A) (A) (A) (A) (A)
                 (A) (A) (A) (A) (A) (A) (A) (A) (A) (A) (A) (A)
                 (A) (A) (A) (A) (A) (A) (A) (A) (A) (A) (A) (A)
                 (A) (A) (A) (A) (A) (A) (A) (A) (A) (A) (A) (A)
                 (A) (A) (A) (A) (A) (A) (A) (A) (A) (A) (A) (A)
                 (A) (A) (A) (A) (A) (A) (A) (A) (A) (A) (A) (A)
                 (A) (A) (A) (A) (A) (A) (A) (A) (A) (A) (A) (A)
                 (A) (A) (A) (A) (A) (A) (A) (A) (A) (A) (A) (A)
                 (A) (A) (A) (A) (A) (A) (A) (A) (A) (A) (A) (A)
                 (A) (A) (A) (A) (A) (A) (A) (A) (A) (A) (A) (A)
                 (A) (A) (A) (A) (A) (A) (A) (A) (A) (A) (A) (A)
                 (A) (A) (A) (A) (A) (A) (A) (A) (A) (A) (A) (A)
                 (A) (A) (A) (A) (A) (A) (A) (A) (A) (A) (A) (A)
                 (A) (A) (A) (A) (A) (A) (A) (A) (A) (A) (A) (A)
                 (A) (A) (A) (A) (A) (A) (A) (A) (A) (A) (A) (A)
                 (A) (A) (A) (A) (A) (A) (A) (A) (A) (A) (A) (A)
                 (A) (A) (A) (A) (A) (A) (A) (A) (A) (A) (A) (A)
 The electronic state of the initial guess is 1-A.
 Requested convergence on RMS density matrix=1.00D-08 within 128 cycles.
 Requested convergence on MAX density matrix=1.00D-06.
 Requested convergence on             energy=1.00D-06.
 No special actions if energy rises.
 Error on total polarization charges =  0.01153
 SCF Done:  E(RmPW1PW91) =  -610.646823900     A.U. after   12 cycles
             Convg  =    0.8065D-08             -V/T =  2.0090
 Range of M.O.s used for correlation:     1   259
 NBasis=   259 NAE=    43 NBE=    43 NFC=     0 NFV=     0
 NROrb=    259 NOA=    43 NOB=    43 NVA=   216 NVB=   216

 **** Warning!!: The largest alpha MO coefficient is  0.72531725D+02

 NEqPCM:  Using equilibrium solvation (IEInf=0, Eps=  78.3553, EpsInf=   1.7778)
          Differentiating once with respect to magnetic field using GIAOs.
          Electric field/nuclear overlap derivatives assumed to be zero.
 FoFCou: FMM=F IPFlag=           0 FMFlag=    10101102 FMFlg1=           0
         NFxFlg=    40000000 DoJE=F BraDBF=F KetDBF=T FulRan=T
         Omega=  0.000000  0.000000  1.000000  0.000000  0.000000 ICntrl=    6100 IOpCl=  0
         NMat0=    1 NMatS0=    1 NMatT0=    0 NMatD0=    1 NMtDS0=    0 NMtDT0=    0
         I1Cent=           7 NGrid=        1503.
 Symmetry not used in FoFCou.
          There are     3 degrees of freedom in the 1st order CPHF.  IDoFFX=0.
      3 vectors produced by pass  0 Test12= 3.10D-13 3.33D-08 XBig12= 1.99D+01 9.24D-01.
 AX will form     3 AO Fock derivatives at one time.
      3 vectors produced by pass  1 Test12= 3.10D-13 3.33D-08 XBig12= 4.62D-02 2.95D-02.
      3 vectors produced by pass  2 Test12= 3.10D-13 3.33D-08 XBig12= 1.10D-04 1.67D-03.
      3 vectors produced by pass  3 Test12= 3.10D-13 3.33D-08 XBig12= 5.30D-07 1.40D-04.
      3 vectors produced by pass  4 Test12= 3.10D-13 3.33D-08 XBig12= 1.53D-09 7.05D-06.
      3 vectors produced by pass  5 Test12= 3.10D-13 3.33D-08 XBig12= 5.02D-12 3.68D-07.
 Inverted reduced A of dimension    18 with in-core refinement.
 Calculating GIAO nuclear magnetic shielding tensors.
 SCF GIAO Magnetic shielding tensor (ppm):
      1  C    Isotropic =   129.6314   Anisotropy =    63.1081
   XX=   161.7404   YX=     7.2667   ZX=   -18.5815
   XY=     6.2484   YY=   104.7638   ZY=     7.8634
   XZ=   -25.1110   YZ=     3.0141   ZZ=   122.3900
   Eigenvalues:    99.8849   117.3058   171.7034
      2  C    Isotropic =   118.1850   Anisotropy =    47.0363
   XX=   107.6036   YX=     9.9757   ZX=   -13.1374
   XY=    18.5231   YY=   107.4617   ZY=    -0.5690
   XZ=   -21.3628   YZ=    -8.6986   ZZ=   139.4896
   Eigenvalues:    91.3243   113.6881   149.5425
      3  C    Isotropic =    92.8554   Anisotropy =    25.7995
   XX=   101.2196   YX=    -0.8315   ZX=    11.6088
   XY=   -14.0359   YY=    79.1426   ZY=    22.3369
   XZ=     4.6203   YZ=    12.1465   ZZ=    98.2040
   Eigenvalues:    65.8215   102.6896   110.0551
      4  C    Isotropic =   122.4019   Anisotropy =    46.1751
   XX=   121.6252   YX=    -0.1557   ZX=    31.3757
   XY=    -2.6232   YY=   111.0481   ZY=    11.1140
   XZ=    14.0855   YZ=    10.4835   ZZ=   134.5324
   Eigenvalues:    99.0830   114.9374   153.1853
      5  C    Isotropic =   126.1181   Anisotropy =    43.0960
   XX=   147.6977   YX=   -10.3935   ZX=     6.1947
   XY=    -9.7289   YY=   119.4402   ZY=     4.2556
   XZ=    21.7604   YZ=    -2.1618   ZZ=   111.2163
   Eigenvalues:   105.0612   118.4443   154.8487
      6  C    Isotropic =   122.2911   Anisotropy =    44.5925
   XX=   121.0199   YX=     7.7332   ZX=     9.5363
   XY=     8.9226   YY=   111.4116   ZY=    12.7893
   XZ=    21.0282   YZ=    18.2621   ZZ=   134.4417
   Eigenvalues:   103.5633   111.2905   152.0194
      7  O    Isotropic =   239.9254   Anisotropy =    57.7711
   XX=   269.7369   YX=    -4.3288   ZX=    20.6913
   XY=   -20.6463   YY=   186.8622   ZY=    33.4520
   XZ=    -4.8870   YZ=    38.0389   ZZ=   263.1771
   Eigenvalues:   170.6068   270.7299   278.4394
      8  O    Isotropic =   273.8220   Anisotropy =    96.9484
   XX=   314.4988   YX=    14.0087   ZX=    -3.0511
   XY=    15.2402   YY=   209.6558   ZY=    50.8211
   XZ=    33.4985   YZ=    53.4260   ZZ=   297.3115
   Eigenvalues:   185.0140   297.9978   338.4543
      9  O    Isotropic =   290.0113   Anisotropy =    74.8079
   XX=   281.3959   YX=    -1.6164   ZX=    16.9948
   XY=    11.7039   YY=   338.1357   ZY=    13.8958
   XZ=    17.5440   YZ=     4.1614   ZZ=   250.5024
   Eigenvalues:   242.3740   287.7768   339.8833
     10  O    Isotropic =   311.2033   Anisotropy =    35.2195
   XX=   333.4892   YX=     1.0171   ZX=    -2.5180
   XY=    11.6862   YY=   299.7629   ZY=    17.1018
   XZ=     1.9304   YZ=    -1.5571   ZZ=   300.3577
   Eigenvalues:   291.7206   307.2063   334.6830
     11  O    Isotropic =   304.7886   Anisotropy =    57.8086
   XX=   318.3856   YX=     6.2713   ZX=   -18.4052
   XY=     7.1193   YY=   311.8487   ZY=   -23.2909
   XZ=   -36.9449   YZ=   -20.0094   ZZ=   284.1315
   Eigenvalues:   263.2426   307.7955   343.3276
     12  H    Isotropic =    27.2234   Anisotropy =     6.0890
   XX=    24.5140   YX=    -0.1664   ZX=    -2.3880
   XY=    -1.4580   YY=    26.3468   ZY=    -0.2728
   XZ=    -0.8826   YZ=     1.1115   ZZ=    30.8093
   Eigenvalues:    23.9149    26.4724    31.2827
     13  H    Isotropic =    27.7094   Anisotropy =    11.2507
   XX=    27.8945   YX=    -4.0278   ZX=    -2.7777
   XY=    -2.7440   YY=    30.9095   ZY=     4.1564
   XZ=    -2.5653   YZ=     3.7794   ZZ=    24.3241
   Eigenvalues:    22.2212    25.6971    35.2098
     14  H    Isotropic =    26.9917   Anisotropy =     7.9681
   XX=    31.2794   YX=    -1.7389   ZX=    -0.8451
   XY=    -2.4102   YY=    25.7230   ZY=     0.0517
   XZ=    -2.5490   YZ=     0.3224   ZZ=    23.9726
   Eigenvalues:    23.5549    25.1163    32.3038
     15  H    Isotropic =    26.2340   Anisotropy =     7.6107
   XX=    25.5545   YX=     1.1392   ZX=    -2.6639
   XY=     1.4221   YY=    24.9350   ZY=    -2.0269
   XZ=    -3.3740   YZ=    -2.6953   ZZ=    28.2126
   Eigenvalues:    23.4670    23.9273    31.3079
     16  H    Isotropic =    27.5801   Anisotropy =     7.1763
   XX=    25.0553   YX=     1.2658   ZX=     1.6832
   XY=     0.8919   YY=    31.1912   ZY=     1.2312
   XZ=     2.3549   YZ=     2.8145   ZZ=    26.4940
   Eigenvalues:    23.6186    26.7575    32.3643
     17  H    Isotropic =    27.7135   Anisotropy =     5.2629
   XX=    28.3090   YX=    -1.0717   ZX=     0.9456
   XY=    -1.0086   YY=    24.9528   ZY=     3.3624
   XZ=    -0.3315   YZ=     2.4181   ZZ=    29.8788
   Eigenvalues:    23.3844    28.5340    31.2221
     18  H    Isotropic =    27.6393   Anisotropy =     5.1345
   XX=    27.3776   YX=     2.9467   ZX=    -0.4639
   XY=     2.2939   YY=    25.2014   ZY=    -0.1391
   XZ=    -1.0532   YZ=    -1.7938   ZZ=    30.3388
   Eigenvalues:    23.4303    28.4253    31.0623
     19  H    Isotropic =    29.9295   Anisotropy =    19.2405
   XX=    24.9196   YX=     4.7610   ZX=     2.7768
   XY=     4.6722   YY=    41.5092   ZY=    -1.5236
   XZ=     2.4756   YZ=     0.0462   ZZ=    23.3597
   Eigenvalues:    20.7838    26.2483    42.7565
     20  H    Isotropic =    28.1010   Anisotropy =    16.6332
   XX=    38.5559   YX=     2.7085   ZX=    -2.1696
   XY=     2.6871   YY=    18.3786   ZY=    -3.8310
   XZ=    -0.6655   YZ=    -2.0741   ZZ=    27.3686
   Eigenvalues:    17.2683    27.8450    39.1899
     21  H    Isotropic =    29.6910   Anisotropy =    19.7016
   XX=    35.2787   YX=     4.9671   ZX=    -7.3394
   XY=     4.6825   YY=    26.5145   ZY=    -6.5664
   XZ=    -7.0742   YZ=    -5.6272   ZZ=    27.2797
   Eigenvalues:    20.5611    25.6865    42.8254
 End of Minotr Frequency-dependent properties file   721 does not exist.
 End of Minotr Frequency-dependent properties file   722 does not exist.

 **********************************************************************

            Population analysis using the SCF density.

 **********************************************************************

 Orbital symmetries:
       Occupied  (A) (A) (A) (A) (A) (A) (A) (A) (A) (A) (A) (A)
                 (A) (A) (A) (A) (A) (A) (A) (A) (A) (A) (A) (A)
                 (A) (A) (A) (A) (A) (A) (A) (A) (A) (A) (A) (A)
                 (A) (A) (A) (A) (A) (A) (A)
       Virtual   (A) (A) (A) (A) (A) (A) (A) (A) (A) (A) (A) (A)
                 (A) (A) (A) (A) (A) (A) (A) (A) (A) (A) (A) (A)
                 (A) (A) (A) (A) (A) (A) (A) (A) (A) (A) (A) (A)
                 (A) (A) (A) (A) (A) (A) (A) (A) (A) (A) (A) (A)
                 (A) (A) (A) (A) (A) (A) (A) (A) (A) (A) (A) (A)
                 (A) (A) (A) (A) (A) (A) (A) (A) (A) (A) (A) (A)
                 (A) (A) (A) (A) (A) (A) (A) (A) (A) (A) (A) (A)
                 (A) (A) (A) (A) (A) (A) (A) (A) (A) (A) (A) (A)
                 (A) (A) (A) (A) (A) (A) (A) (A) (A) (A) (A) (A)
                 (A) (A) (A) (A) (A) (A) (A) (A) (A) (A) (A) (A)
                 (A) (A) (A) (A) (A) (A) (A) (A) (A) (A) (A) (A)
                 (A) (A) (A) (A) (A) (A) (A) (A) (A) (A) (A) (A)
                 (A) (A) (A) (A) (A) (A) (A) (A) (A) (A) (A) (A)
                 (A) (A) (A) (A) (A) (A) (A) (A) (A) (A) (A) (A)
                 (A) (A) (A) (A) (A) (A) (A) (A) (A) (A) (A) (A)
                 (A) (A) (A) (A) (A) (A) (A) (A) (A) (A) (A) (A)
                 (A) (A) (A) (A) (A) (A) (A) (A) (A) (A) (A) (A)
                 (A) (A) (A) (A) (A) (A) (A) (A) (A) (A) (A) (A)
 The electronic state is 1-A.
 Alpha  occ. eigenvalues --  -19.27576 -19.27489 -19.26617 -19.26394 -19.25414
 Alpha  occ. eigenvalues --  -10.35826 -10.31680 -10.31537 -10.31533 -10.31430
 Alpha  occ. eigenvalues --  -10.30344  -1.14227  -1.08687  -1.07163  -1.05304
 Alpha  occ. eigenvalues --   -1.03771  -0.82234  -0.80651  -0.70681  -0.68381
 Alpha  occ. eigenvalues --   -0.65234  -0.60486  -0.57045  -0.55772  -0.54270
 Alpha  occ. eigenvalues --   -0.52087  -0.50707  -0.49513  -0.46651  -0.46118
 Alpha  occ. eigenvalues --   -0.45027  -0.42931  -0.42123  -0.40891  -0.39266
 Alpha  occ. eigenvalues --   -0.37585  -0.36816  -0.35880  -0.33063  -0.31115
 Alpha  occ. eigenvalues --   -0.30568  -0.29454  -0.27271
 Alpha virt. eigenvalues --    0.00515   0.01134   0.02068   0.02945   0.04014
 Alpha virt. eigenvalues --    0.04420   0.05159   0.05409   0.06020   0.08024
 Alpha virt. eigenvalues --    0.08598   0.09478   0.09665   0.10845   0.11651
 Alpha virt. eigenvalues --    0.12530   0.13053   0.13398   0.13989   0.14367
 Alpha virt. eigenvalues --    0.14854   0.15715   0.15925   0.16959   0.17646
 Alpha virt. eigenvalues --    0.18768   0.19479   0.19650   0.20569   0.21077
 Alpha virt. eigenvalues --    0.21970   0.22482   0.22631   0.23831   0.24204
 Alpha virt. eigenvalues --    0.24451   0.25293   0.26173   0.26783   0.27653
 Alpha virt. eigenvalues --    0.28120   0.28805   0.29330   0.30038   0.30615
 Alpha virt. eigenvalues --    0.31116   0.32222   0.32311   0.33300   0.33767
 Alpha virt. eigenvalues --    0.35056   0.35339   0.36345   0.36903   0.37676
 Alpha virt. eigenvalues --    0.38395   0.38790   0.39122   0.39428   0.41080
 Alpha virt. eigenvalues --    0.41716   0.42393   0.44240   0.46566   0.48118
 Alpha virt. eigenvalues --    0.49235   0.64630   0.67334   0.67828   0.69329
 Alpha virt. eigenvalues --    0.70199   0.70741   0.74759   0.76023   0.77915
 Alpha virt. eigenvalues --    0.80204   0.81255   0.82594   0.83092   0.85724
 Alpha virt. eigenvalues --    0.89886   0.90204   0.96399   0.97439   1.00237
 Alpha virt. eigenvalues --    1.00758   1.03404   1.04764   1.05475   1.08160
 Alpha virt. eigenvalues --    1.09427   1.10872   1.12046   1.12917   1.13237
 Alpha virt. eigenvalues --    1.18022   1.19264   1.22143   1.26336   1.27148
 Alpha virt. eigenvalues --    1.27980   1.30013   1.31190   1.32175   1.34671
 Alpha virt. eigenvalues --    1.35965   1.36694   1.38145   1.40684   1.42778
 Alpha virt. eigenvalues --    1.43646   1.45622   1.47607   1.49679   1.51350
 Alpha virt. eigenvalues --    1.53265   1.55631   1.57969   1.58826   1.61178
 Alpha virt. eigenvalues --    1.61950   1.65412   1.66762   1.67689   1.69608
 Alpha virt. eigenvalues --    1.71436   1.72906   1.74646   1.77065   1.80445
 Alpha virt. eigenvalues --    1.80981   1.84879   1.86088   1.88933   1.90288
 Alpha virt. eigenvalues --    1.91479   1.93177   1.94959   1.97722   1.98622
 Alpha virt. eigenvalues --    2.01305   2.03365   2.06629   2.07146   2.08133
 Alpha virt. eigenvalues --    2.11026   2.13218   2.13950   2.14858   2.16607
 Alpha virt. eigenvalues --    2.20200   2.21003   2.22149   2.26146   2.30875
 Alpha virt. eigenvalues --    2.31487   2.34190   2.38852   2.40665   2.42988
 Alpha virt. eigenvalues --    2.45512   2.47608   2.49730   2.51379   2.52459
 Alpha virt. eigenvalues --    2.54133   2.58271   2.62174   2.62853   2.63148
 Alpha virt. eigenvalues --    2.64969   2.67778   2.69175   2.71135   2.71595
 Alpha virt. eigenvalues --    2.73072   2.76049   2.77118   2.79242   2.80185
 Alpha virt. eigenvalues --    2.82655   2.85527   2.87614   2.88803   2.91413
 Alpha virt. eigenvalues --    2.94223   2.95813   2.97762   2.99804   3.02060
 Alpha virt. eigenvalues --    3.04407   3.07042   3.10187   3.14072   3.23674
 Alpha virt. eigenvalues --    3.36856   3.41417   3.45340   3.46242   3.49061
 Alpha virt. eigenvalues --    3.49549   3.53683   3.55545   3.57224   3.59586
 Alpha virt. eigenvalues --    4.34384   4.36193   4.42880   4.48021   4.51377
 Alpha virt. eigenvalues --    4.56080   4.65151   4.80283   4.90263   4.96844
 Alpha virt. eigenvalues --    5.02672
          Condensed to atoms (all electrons):
              1          2          3          4          5          6
     1  C    5.726151  -0.387269  -0.696310  -0.557386   0.636251   0.290993
     2  C   -0.387269   6.856074  -0.074226   0.619737  -0.496371  -0.787623
     3  C   -0.696310  -0.074226   7.221118   0.463403  -1.620414   0.035437
     4  C   -0.557386   0.619737   0.463403   6.989015  -0.768681  -0.892721
     5  C    0.636251  -0.496371  -1.620414  -0.768681   7.670601   0.156113
     6  C    0.290993  -0.787623   0.035437  -0.892721   0.156113   6.869205
     7  O   -0.028163   0.139259   0.281031  -0.086186  -0.042041  -0.078174
     8  O    0.201321  -0.135467   0.374034   0.020880  -0.243614  -0.025467
     9  O    0.042272  -0.136042  -0.039456  -0.087881   0.053611   0.197453
    10  O    0.009950  -0.051584   0.030760   0.213299  -0.078671  -0.040912
    11  O    0.017261  -0.023330  -0.011278  -0.152908   0.119015   0.071828
    12  H    0.492895  -0.190255   0.000519  -0.053496   0.029390   0.087585
    13  H    0.365860   0.021384  -0.007581   0.009980  -0.001694  -0.008565
    14  H    0.021689   0.312057  -0.012866  -0.004286   0.018592   0.004860
    15  H    0.006587   0.042694   0.300902   0.017980   0.031700  -0.027535
    16  H    0.000249  -0.030381   0.036561   0.291820  -0.009006   0.032495
    17  H    0.006063  -0.017610  -0.003017  -0.050844   0.327608   0.021109
    18  H    0.020728  -0.004694  -0.041029  -0.000838   0.048313   0.282621
    19  H   -0.006539   0.003166   0.010570  -0.027847  -0.024789   0.059335
    20  H    0.007202  -0.011928  -0.007765  -0.011601  -0.025726   0.028240
    21  H   -0.003205   0.002683  -0.046018   0.009473   0.055554  -0.005294
              7          8          9         10         11         12
     1  C   -0.028163   0.201321   0.042272   0.009950   0.017261   0.492895
     2  C    0.139259  -0.135467  -0.136042  -0.051584  -0.023330  -0.190255
     3  C    0.281031   0.374034  -0.039456   0.030760  -0.011278   0.000519
     4  C   -0.086186   0.020880  -0.087881   0.213299  -0.152908  -0.053496
     5  C   -0.042041  -0.243614   0.053611  -0.078671   0.119015   0.029390
     6  C   -0.078174  -0.025467   0.197453  -0.040912   0.071828   0.087585
     7  O    8.226723  -0.052871   0.018429   0.004056   0.004427   0.011884
     8  O   -0.052871   8.312063   0.001527   0.033484   0.019692  -0.045892
     9  O    0.018429   0.001527   8.294940   0.007416   0.000189  -0.000001
    10  O    0.004056   0.033484   0.007416   8.237992  -0.021014  -0.006753
    11  O    0.004427   0.019692   0.000189  -0.021014   8.333052   0.000120
    12  H    0.011884  -0.045892  -0.000001  -0.006753   0.000120   0.519986
    13  H   -0.003043  -0.050893  -0.000218   0.001436  -0.000010  -0.037840
    14  H   -0.034796   0.006496   0.003802  -0.000247   0.000031   0.002278
    15  H   -0.038928  -0.050120   0.000358  -0.000391  -0.008167  -0.000243
    16  H   -0.001307   0.001708  -0.007525  -0.048630   0.002611  -0.000065
    17  H    0.000651   0.010367   0.004123   0.005195  -0.034700  -0.000019
    18  H    0.009005  -0.000482  -0.031791  -0.002009  -0.000833   0.000149
    19  H   -0.001136   0.000178   0.233152   0.000262   0.000085  -0.000011
    20  H   -0.000183  -0.002744  -0.000360   0.251262   0.028240   0.000310
    21  H    0.000789  -0.003601  -0.000016   0.000970   0.238878   0.000001
             13         14         15         16         17         18
     1  C    0.365860   0.021689   0.006587   0.000249   0.006063   0.020728
     2  C    0.021384   0.312057   0.042694  -0.030381  -0.017610  -0.004694
     3  C   -0.007581  -0.012866   0.300902   0.036561  -0.003017  -0.041029
     4  C    0.009980  -0.004286   0.017980   0.291820  -0.050844  -0.000838
     5  C   -0.001694   0.018592   0.031700  -0.009006   0.327608   0.048313
     6  C   -0.008565   0.004860  -0.027535   0.032495   0.021109   0.282621
     7  O   -0.003043  -0.034796  -0.038928  -0.001307   0.000651   0.009005
     8  O   -0.050893   0.006496  -0.050120   0.001708   0.010367  -0.000482
     9  O   -0.000218   0.003802   0.000358  -0.007525   0.004123  -0.031791
    10  O    0.001436  -0.000247  -0.000391  -0.048630   0.005195  -0.002009
    11  O   -0.000010   0.000031  -0.008167   0.002611  -0.034700  -0.000833
    12  H   -0.037840   0.002278  -0.000243  -0.000065  -0.000019   0.000149
    13  H    0.540491  -0.003523   0.000325   0.000004   0.000014   0.000071
    14  H   -0.003523   0.497840   0.000043  -0.000129  -0.000020  -0.001252
    15  H    0.000325   0.000043   0.541004  -0.000155  -0.003654   0.000026
    16  H    0.000004  -0.000129  -0.000155   0.574930  -0.002957  -0.004286
    17  H    0.000014  -0.000020  -0.003654  -0.002957   0.555281  -0.000144
    18  H    0.000071  -0.001252   0.000026  -0.004286  -0.000144   0.550941
    19  H    0.000004   0.000019   0.000000   0.004714   0.000183  -0.007860
    20  H   -0.000029   0.000012  -0.000045   0.000791   0.000754   0.000094
    21  H    0.000000   0.000000   0.003553  -0.000253  -0.004330   0.000006
             19         20         21
     1  C   -0.006539   0.007202  -0.003205
     2  C    0.003166  -0.011928   0.002683
     3  C    0.010570  -0.007765  -0.046018
     4  C   -0.027847  -0.011601   0.009473
     5  C   -0.024789  -0.025726   0.055554
     6  C    0.059335   0.028240  -0.005294
     7  O   -0.001136  -0.000183   0.000789
     8  O    0.000178  -0.002744  -0.003601
     9  O    0.233152  -0.000360  -0.000016
    10  O    0.000262   0.251262   0.000970
    11  O    0.000085   0.028240   0.238878
    12  H   -0.000011   0.000310   0.000001
    13  H    0.000004  -0.000029   0.000000
    14  H    0.000019   0.000012   0.000000
    15  H    0.000000  -0.000045   0.003553
    16  H    0.004714   0.000791  -0.000253
    17  H    0.000183   0.000754  -0.004330
    18  H   -0.007860   0.000094   0.000006
    19  H    0.369945  -0.000018   0.000000
    20  H   -0.000018   0.349948  -0.001097
    21  H    0.000000  -0.001097   0.355949
 Mulliken atomic charges:
              1
     1  C   -0.166601
     2  C    0.349725
     3  C   -0.194376
     4  C    0.059089
     5  C    0.164257
     6  C   -0.270982
     7  O   -0.329427
     8  O   -0.370600
     9  O   -0.553982
    10  O   -0.545872
    11  O   -0.583190
    12  H    0.189457
    13  H    0.173826
    14  H    0.189400
    15  H    0.184065
    16  H    0.158812
    17  H    0.185946
    18  H    0.183265
    19  H    0.386586
    20  H    0.394642
    21  H    0.395958
 Sum of Mulliken atomic charges =   0.00000
 Mulliken charges with hydrogens summed into heavy atoms:
              1
     1  C    0.196682
     2  C    0.539125
     3  C   -0.010310
     4  C    0.217901
     5  C    0.350203
     6  C   -0.087716
     7  O   -0.329427
     8  O   -0.370600
     9  O   -0.167396
    10  O   -0.151230
    11  O   -0.187232
 Sum of Mulliken charges with hydrogens summed into heavy atoms =   0.00000
 Electronic spatial extent (au):  <R**2>=           1373.5350
 Charge=              0.0000 electrons
 Dipole moment (field-independent basis, Debye):
    X=              0.2259    Y=             -0.8142    Z=             -0.5264  Tot=              0.9955
 Quadrupole moment (field-independent basis, Debye-Ang):
   XX=            -60.8198   YY=            -61.9998   ZZ=            -66.7484
   XY=              3.0793   XZ=            -11.8086   YZ=              2.5547
 Traceless Quadrupole moment (field-independent basis, Debye-Ang):
   XX=              2.3695   YY=              1.1895   ZZ=             -3.5590
   XY=              3.0793   XZ=            -11.8086   YZ=              2.5547
 Octapole moment (field-independent basis, Debye-Ang**2):
  XXX=             23.5898  YYY=            -21.7501  ZZZ=             -5.9169  XYY=            -21.0578
  XXY=              3.4197  XXZ=             -0.8433  XZZ=             13.4546  YZZ=              6.4653
  YYZ=             -2.8337  XYZ=             -5.9824
 Hexadecapole moment (field-independent basis, Debye-Ang**3):
 XXXX=           -660.5107 YYYY=           -558.1239 ZZZZ=           -374.9817 XXXY=             18.9065
 XXXZ=            -41.5531 YYYX=             38.3700 YYYZ=             15.4090 ZZZX=            -18.5650
 ZZZY=             13.7290 XXYY=           -204.2409 XXZZ=           -162.8895 YYZZ=           -168.7273
 XXYZ=            -14.6789 YYXZ=             -8.3964 ZZXY=              6.0843
 N-N= 7.333630408254D+02 E-N=-2.897042063113D+03  KE= 6.052063535042D+02
 1\1\GINC-COMPUTE-8-11\SP\RmPW1PW91\6-31+G(d,p)\C6H10O5\MMARCARINO.IQUI
 R\12-Apr-2019\0\\# mpw1pw91/6-31+g** nmr scrf=(pcm,solvent=water)\\com
 ment\\0,1\C,0,-0.491266,1.576081,1.094845\C,0,-1.360211,0.765452,0.119
 52\C,0,0.629849,0.997894,-0.825037\C,0,0.176817,-1.260697,0.264395\C,0
 ,1.001485,-0.496745,-0.797107\C,0,-1.284316,-0.749497,0.335262\O,0,-0.
 744954,1.096312,-1.142585\O,0,0.793624,1.62229,0.441255\O,0,-2.091306,
 -1.340515,-0.679467\O,0,0.758824,-1.120373,1.555254\O,0,2.36907,-0.723
 607,-0.466295\H,0,-0.386636,1.108197,2.074979\H,0,-0.870704,2.597423,1
 .206157\H,0,-2.400725,1.092171,0.079128\H,0,1.210232,1.548877,-1.57318
 1\H,0,0.155006,-2.326381,-0.014721\H,0,0.76528,-0.901658,-1.790323\H,0
 ,-1.670057,-0.98937,1.33677\H,0,-2.149194,-2.291043,-0.490556\H,0,1.70
 1461,-0.930087,1.395123\H,0,2.929119,-0.175917,-1.039951\\Version=EM64
 L-G09RevC.01\State=1-A\HF=-610.6468239\RMSD=8.065e-09\Dipole=0.0888723
 ,-0.3203368,-0.2071139\Quadrupole=1.7616884,0.8843582,-2.6460466,2.289
 3931,-8.779393,1.8993888\PG=C01 [X(C6H10O5)]\\@


 KINETICS       FACT
 ---------  =  -------
 MECHANISM     FICTION
 Job cpu time:  0 days  0 hours 20 minutes 23.4 seconds.
 File lengths (MBytes):  RWF=     81 Int=      0 D2E=      0 Chk=      5 Scr=      1
 Normal termination of Gaussian 09 at Fri Apr 12 11:46:40 2019.
