 Entering Gaussian System, Link 0=g09
 Input=/home/asarotti.iquir/SCF3/05_SSR_Levo12_OPTB_energy_b3lyp_smd.gjc
 Output=/home/asarotti.iquir/SCF3/05_SSR_Levo12_OPTB_energy_b3lyp_smd.log
 Initial command:
 /share/apps/Gaussian09/EM64T.SSE4.2-enabled/g09/l1.exe /tmp/Gau-7705.inp -scrdir=/tmp/
 Entering Link 1 = /share/apps/Gaussian09/EM64T.SSE4.2-enabled/g09/l1.exe PID=      7706.
  
 Copyright (c) 1988,1990,1992,1993,1995,1998,2003,2009,2011,
            Gaussian, Inc.  All Rights Reserved.
  
 This is part of the Gaussian(R) 09 program.  It is based on
 the Gaussian(R) 03 system (copyright 2003, Gaussian, Inc.),
 the Gaussian(R) 98 system (copyright 1998, Gaussian, Inc.),
 the Gaussian(R) 94 system (copyright 1995, Gaussian, Inc.),
 the Gaussian 92(TM) system (copyright 1992, Gaussian, Inc.),
 the Gaussian 90(TM) system (copyright 1990, Gaussian, Inc.),
 the Gaussian 88(TM) system (copyright 1988, Gaussian, Inc.),
 the Gaussian 86(TM) system (copyright 1986, Carnegie Mellon
 University), and the Gaussian 82(TM) system (copyright 1983,
 Carnegie Mellon University). Gaussian is a federally registered
 trademark of Gaussian, Inc.
  
 This software contains proprietary and confidential information,
 including trade secrets, belonging to Gaussian, Inc.
  
 This software is provided under written license and may be
 used, copied, transmitted, or stored only in accord with that
 written license.
  
 The following legend is applicable only to US Government
 contracts under FAR:
  
                    RESTRICTED RIGHTS LEGEND
  
 Use, reproduction and disclosure by the US Government is
 subject to restrictions as set forth in subparagraphs (a)
 and (c) of the Commercial Computer Software - Restricted
 Rights clause in FAR 52.227-19.
  
 Gaussian, Inc.
 340 Quinnipiac St., Bldg. 40, Wallingford CT 06492
  
  
 ---------------------------------------------------------------
 Warning -- This program may not be used in any manner that
 competes with the business of Gaussian, Inc. or will provide
 assistance to any competitor of Gaussian, Inc.  The licensee
 of this program is prohibited from giving any competitor of
 Gaussian, Inc. access to this program.  By using this program,
 the user acknowledges that Gaussian, Inc. is engaged in the
 business of creating and licensing software in the field of
 computational chemistry and represents and warrants to the
 licensee that it is not a competitor of Gaussian, Inc. and that
 it will not use this program in any manner prohibited above.
 ---------------------------------------------------------------
  

 Cite this work as:
 Gaussian 09, Revision C.01,
 M. J. Frisch, G. W. Trucks, H. B. Schlegel, G. E. Scuseria, 
 M. A. Robb, J. R. Cheeseman, G. Scalmani, V. Barone, B. Mennucci, 
 G. A. Petersson, H. Nakatsuji, M. Caricato, X. Li, H. P. Hratchian, 
 A. F. Izmaylov, J. Bloino, G. Zheng, J. L. Sonnenberg, M. Hada, 
 M. Ehara, K. Toyota, R. Fukuda, J. Hasegawa, M. Ishida, T. Nakajima, 
 Y. Honda, O. Kitao, H. Nakai, T. Vreven, J. A. Montgomery, Jr., 
 J. E. Peralta, F. Ogliaro, M. Bearpark, J. J. Heyd, E. Brothers, 
 K. N. Kudin, V. N. Staroverov, T. Keith, R. Kobayashi, J. Normand, 
 K. Raghavachari, A. Rendell, J. C. Burant, S. S. Iyengar, J. Tomasi, 
 M. Cossi, N. Rega, J. M. Millam, M. Klene, J. E. Knox, J. B. Cross, 
 V. Bakken, C. Adamo, J. Jaramillo, R. Gomperts, R. E. Stratmann, 
 O. Yazyev, A. J. Austin, R. Cammi, C. Pomelli, J. W. Ochterski, 
 R. L. Martin, K. Morokuma, V. G. Zakrzewski, G. A. Voth, 
 P. Salvador, J. J. Dannenberg, S. Dapprich, A. D. Daniels, 
 O. Farkas, J. B. Foresman, J. V. Ortiz, J. Cioslowski, 
 and D. J. Fox, Gaussian, Inc., Wallingford CT, 2010.
 
 ******************************************
 Gaussian 09:  EM64L-G09RevC.01 23-Sep-2011
                15-Apr-2019 
 ******************************************
 %nprocshared=4
 Will use up to    4 processors via shared memory.
 -----------------------------------------------------------
 # B3LYP/6-31+G** test scrf=(pcm,solvent=water,smd,dovacuum)
 -----------------------------------------------------------
 1/38=1/1;
 2/12=2,17=6,18=5,40=1/2;
 3/5=1,6=6,7=111,11=2,16=1,25=1,30=1,70=32101,72=1,74=-5/1,2,3;
 4//1;
 5/5=2,38=5,53=1/2;
 6/7=2,8=2,9=2,10=2,28=1/1;
 99/5=1,9=1/99;
 -------
 comment
 -------
 Charge =  0 Multiplicity = 1
 Symbolic Z-Matrix:
 6                    -1.65543   0.87724  -0.97321 
 6                    -0.55902   1.3748   -0.0048 
 6                    -1.33072  -0.54312   0.78432 
 6                     1.17316  -0.38229   0.45095 
 6                    -0.02189  -1.34963   0.47614 
 6                     0.86062   0.8747   -0.3736 
 8                    -0.9786    0.7585    1.23347 
 8                    -2.12655  -0.33708  -0.36525 
 8                     1.88617   1.85336  -0.20976 
 8                     2.28491  -1.09647  -0.08185 
 8                    -0.14108  -2.01731  -0.77063 
 1                    -1.27578   0.6747   -1.9794 
 1                    -2.48967   1.58298  -1.03719 
 1                    -0.5635    2.45757   0.13307 
 1                    -1.93902  -1.02511   1.55135 
 1                     1.38279  -0.06746   1.48265 
 1                     0.13782  -2.07766   1.28563 
 1                     0.89966   0.61682  -1.43583 
 1                     1.91378   2.1056    0.72928 
 1                     2.95818  -0.43437  -0.31467 
 1                     0.77655  -2.23127  -1.02159 
 
                          Input orientation:                          
 ---------------------------------------------------------------------
 Center     Atomic      Atomic             Coordinates (Angstroms)
 Number     Number       Type             X           Y           Z
 ---------------------------------------------------------------------
      1          6           0       -1.655428    0.877239   -0.973209
      2          6           0       -0.559020    1.374801   -0.004802
      3          6           0       -1.330718   -0.543117    0.784323
      4          6           0        1.173163   -0.382290    0.450945
      5          6           0       -0.021889   -1.349633    0.476137
      6          6           0        0.860623    0.874699   -0.373604
      7          8           0       -0.978603    0.758504    1.233472
      8          8           0       -2.126546   -0.337083   -0.365247
      9          8           0        1.886173    1.853360   -0.209756
     10          8           0        2.284906   -1.096465   -0.081845
     11          8           0       -0.141079   -2.017313   -0.770627
     12          1           0       -1.275778    0.674702   -1.979400
     13          1           0       -2.489670    1.582976   -1.037185
     14          1           0       -0.563501    2.457567    0.133067
     15          1           0       -1.939021   -1.025112    1.551346
     16          1           0        1.382789   -0.067461    1.482650
     17          1           0        0.137816   -2.077659    1.285626
     18          1           0        0.899661    0.616818   -1.435834
     19          1           0        1.913784    2.105602    0.729278
     20          1           0        2.958178   -0.434372   -0.314671
     21          1           0        0.776547   -2.231270   -1.021587
 ---------------------------------------------------------------------
                    Distance matrix (angstroms):
                    1          2          3          4          5
     1  C    0.000000
     2  C    1.545151   0.000000
     3  C    2.282929   2.212837   0.000000
     4  C    3.408160   2.509090   2.531092   0.000000
     5  C    3.118976   2.818218   1.567954   1.537705   0.000000
     6  C    2.586512   1.549678   2.855341   1.535442   2.539398
     7  O    2.311197   1.445405   1.421245   2.558096   2.435795
     8  O    1.437410   2.348958   1.413260   3.399455   2.482492
     9  O    3.752147   2.499999   4.132757   2.437835   3.790820
    10  O    4.496251   3.768422   3.758880   1.424740   2.386785
    11  O    3.273030   3.502513   2.450789   2.427503   1.419304
    12  H    1.094338   2.214253   3.020640   3.608479   3.420502
    13  H    1.094585   2.199218   3.030071   4.415104   4.120714
    14  H    2.216661   1.091517   3.164942   3.343925   3.860805
    15  H    3.173758   3.175780   1.091181   3.363003   2.221887
    16  H    4.019262   2.839587   2.842012   1.098852   2.151779
    17  H    4.129102   3.751035   2.182365   2.154742   1.100364
    18  H    2.609659   2.179482   3.353973   2.152430   2.893409
    19  H    4.140847   2.680989   4.188739   2.610670   3.968571
    20  H    4.841421   3.967343   4.428797   1.942977   3.216190
    21  H    3.947109   3.977605   3.248344   2.396744   1.912580
                    6          7          8          9         10
     6  C    0.000000
     7  O    2.445189   0.000000
     8  O    3.223610   2.252551   0.000000
     9  O    1.427017   3.389478   4.574290   0.000000
    10  O    2.449325   3.977620   4.485297   2.979399   0.000000
    11  O    3.086222   3.524630   2.632410   4.405274   2.684732
    12  H    2.680073   3.227674   2.086386   3.810355   4.406384
    13  H    3.488045   2.849379   2.066395   4.461586   5.557756
    14  H    2.188679   2.066402   3.240601   2.546271   4.559688
    15  H    3.892650   2.050544   2.044964   5.100901   4.529234
    16  H    2.146160   2.514056   3.975280   2.609059   2.078535
    17  H    3.462934   3.048431   3.298836   4.554759   2.728134
    18  H    1.093782   3.266978   3.348733   2.001377   2.586026
    19  H    1.959750   3.230292   4.846541   0.972714   3.323986
    20  H    2.473232   4.395218   5.085906   2.528620   0.972559
    21  H    3.173956   4.135770   3.527985   4.309819   2.108565
                   11         12         13         14         15
    11  O    0.000000
    12  H    3.161585   0.000000
    13  H    4.306857   1.785011   0.000000
    14  H    4.584720   2.854551   2.417545   0.000000
    15  H    3.099777   3.974346   3.715620   4.004076   0.000000
    16  H    3.346842   4.427705   4.906063   3.461963   3.457779
    17  H    2.075958   4.498237   5.069456   4.731650   2.343441
    18  H    2.909345   2.243067   3.546822   2.826774   4.435910
    19  H    4.844647   4.422411   4.773252   2.572215   5.032025
    20  H    3.509842   4.682708   5.854124   4.578865   5.273855
    21  H    0.975088   3.684307   5.021642   5.011402   3.930536
                   16         17         18         19         20
    16  H    0.000000
    17  H    2.372693   0.000000
    18  H    3.036313   3.904735   0.000000
    19  H    2.360451   4.578565   2.816493   0.000000
    20  H    2.418023   3.635352   2.568949   2.938036   0.000000
    21  H    3.364640   2.398918   2.880688   4.813242   2.913432
                   21
    21  H    0.000000
 Stoichiometry    C6H10O5
 Framework group  C1[X(C6H10O5)]
 Deg. of freedom    57
 Full point group                 C1      NOp   1
 Largest Abelian subgroup         C1      NOp   1
 Largest concise Abelian subgroup C1      NOp   1
                         Standard orientation:                         
 ---------------------------------------------------------------------
 Center     Atomic      Atomic             Coordinates (Angstroms)
 Number     Number       Type             X           Y           Z
 ---------------------------------------------------------------------
      1          6           0        1.655428   -0.877239   -0.973209
      2          6           0        0.559020   -1.374801   -0.004802
      3          6           0        1.330718    0.543117    0.784323
      4          6           0       -1.173163    0.382291    0.450945
      5          6           0        0.021889    1.349633    0.476137
      6          6           0       -0.860623   -0.874699   -0.373604
      7          8           0        0.978603   -0.758504    1.233472
      8          8           0        2.126546    0.337082   -0.365247
      9          8           0       -1.886174   -1.853359   -0.209756
     10          8           0       -2.284906    1.096466   -0.081845
     11          8           0        0.141080    2.017313   -0.770627
     12          1           0        1.275778   -0.674702   -1.979400
     13          1           0        2.489669   -1.582977   -1.037185
     14          1           0        0.563500   -2.457567    0.133067
     15          1           0        1.939021    1.025111    1.551346
     16          1           0       -1.382789    0.067462    1.482650
     17          1           0       -0.137815    2.077659    1.285626
     18          1           0       -0.899661   -0.616818   -1.435834
     19          1           0       -1.913785   -2.105601    0.729278
     20          1           0       -2.958178    0.434373   -0.314671
     21          1           0       -0.776546    2.231270   -1.021587
 ---------------------------------------------------------------------
 Rotational constants (GHZ):      1.5771942      1.2119156      0.8672905
 Standard basis: 6-31+G(d,p) (6D, 7F)
 There are   259 symmetry adapted basis functions of A   symmetry.
 Integral buffers will be    131072 words long.
 Raffenetti 2 integral format.
 Two-electron integral symmetry is turned on.
   259 basis functions,   422 primitive gaussians,   259 cartesian basis functions
    43 alpha electrons       43 beta electrons
       nuclear repulsion energy       725.6083767219 Hartrees.
 NAtoms=   21 NActive=   21 NUniq=   21 SFac= 1.00D+00 NAtFMM=   60 NAOKFM=F Big=F
 ------------------------------------------------------------------------------
 Polarizable Continuum Model (PCM)
 =================================
 Model                : C-PCM.
 Atomic radii         : SMD-Coulomb.
 Polarization charges : Total charges.
 Charge compensation  : None.
 Solution method      : Matrix inversion.
 Cavity type          : VdW (van der Waals Surface) (Alpha=1.000).
 Cavity algorithm     : GePol (No added spheres)
                        Default sphere list used, NSphG=   21.
                        Lebedev-Laikov grids with approx.  5.0 points / Ang**2.
                        Smoothing algorithm: Karplus/York (Gamma=1.0000).
                        Polarization charges: spherical gaussians, with
                                              point-specific exponents (IZeta= 3).
                        Self-potential: point-specific (ISelfS= 7).
                        Self-field    : sphere-specific E.n sum rule (ISelfD= 2).
 Solvent              : Water, Eps=  78.355300 Eps(inf)=   1.777849
 ------------------------------------------------------------------------------
 ------------------------------------------------------------------------------
 Atomic radii for non-electrostatic terms: SMD-CDS.
 ------------------------------------------------------------------------------
 Nuclear repulsion after PCM non-electrostatic terms =      725.6135228185 Hartrees.
 One-electron integrals computed using PRISM.
 NBasis=   259 RedAO= T  NBF=   259
 NBsUse=   259 1.00D-06 NBFU=   259
 Harris functional with IExCor=  402 diagonalized for initial guess.
 ExpMin= 4.38D-02 ExpMax= 5.48D+03 ExpMxC= 8.25D+02 IAcc=2 IRadAn=         4 AccDes= 0.00D+00
 HarFok:  IExCor=  402 AccDes= 0.00D+00 IRadAn=         4 IDoV= 1
 ScaDFX=  1.000000  1.000000  1.000000  1.000000
 FoFCou: FMM=F IPFlag=           0 FMFlag=      100000 FMFlg1=           0
         NFxFlg=           0 DoJE=T BraDBF=F KetDBF=T FulRan=T
         Omega=  0.000000  0.000000  1.000000  0.000000  0.000000 ICntrl=     500 IOpCl=  0
         NMat0=    1 NMatS0=    1 NMatT0=    0 NMatD0=    1 NMtDS0=    0 NMtDT0=    0
         I1Cent=           4 NGrid=           0.
 Petite list used in FoFCou.
 Initial guess orbital symmetries:
       Occupied  (A) (A) (A) (A) (A) (A) (A) (A) (A) (A) (A) (A)
                 (A) (A) (A) (A) (A) (A) (A) (A) (A) (A) (A) (A)
                 (A) (A) (A) (A) (A) (A) (A) (A) (A) (A) (A) (A)
                 (A) (A) (A) (A) (A) (A) (A)
       Virtual   (A) (A) (A) (A) (A) (A) (A) (A) (A) (A) (A) (A)
                 (A) (A) (A) (A) (A) (A) (A) (A) (A) (A) (A) (A)
                 (A) (A) (A) (A) (A) (A) (A) (A) (A) (A) (A) (A)
                 (A) (A) (A) (A) (A) (A) (A) (A) (A) (A) (A) (A)
                 (A) (A) (A) (A) (A) (A) (A) (A) (A) (A) (A) (A)
                 (A) (A) (A) (A) (A) (A) (A) (A) (A) (A) (A) (A)
                 (A) (A) (A) (A) (A) (A) (A) (A) (A) (A) (A) (A)
                 (A) (A) (A) (A) (A) (A) (A) (A) (A) (A) (A) (A)
                 (A) (A) (A) (A) (A) (A) (A) (A) (A) (A) (A) (A)
                 (A) (A) (A) (A) (A) (A) (A) (A) (A) (A) (A) (A)
                 (A) (A) (A) (A) (A) (A) (A) (A) (A) (A) (A) (A)
                 (A) (A) (A) (A) (A) (A) (A) (A) (A) (A) (A) (A)
                 (A) (A) (A) (A) (A) (A) (A) (A) (A) (A) (A) (A)
                 (A) (A) (A) (A) (A) (A) (A) (A) (A) (A) (A) (A)
                 (A) (A) (A) (A) (A) (A) (A) (A) (A) (A) (A) (A)
                 (A) (A) (A) (A) (A) (A) (A) (A) (A) (A) (A) (A)
                 (A) (A) (A) (A) (A) (A) (A) (A) (A) (A) (A) (A)
                 (A) (A) (A) (A) (A) (A) (A) (A) (A) (A) (A) (A)
 The electronic state of the initial guess is 1-A.
 Requested convergence on RMS density matrix=1.00D-08 within 128 cycles.
 Requested convergence on MAX density matrix=1.00D-06.
 Requested convergence on             energy=1.00D-06.
 No special actions if energy rises.
 Error on total polarization charges =  0.05761
 SCF Done:  E(RB3LYP) =  -610.800512738     A.U. after   12 cycles
             Convg  =    0.4504D-08             -V/T =  2.0090
 SMD-CDS (non-electrostatic) energy       (kcal/mol) =       3.23
 (included in total energy above)

 **********************************************************************

            Population analysis using the SCF density.

 **********************************************************************

 Orbital symmetries:
       Occupied  (A) (A) (A) (A) (A) (A) (A) (A) (A) (A) (A) (A)
                 (A) (A) (A) (A) (A) (A) (A) (A) (A) (A) (A) (A)
                 (A) (A) (A) (A) (A) (A) (A) (A) (A) (A) (A) (A)
                 (A) (A) (A) (A) (A) (A) (A)
       Virtual   (A) (A) (A) (A) (A) (A) (A) (A) (A) (A) (A) (A)
                 (A) (A) (A) (A) (A) (A) (A) (A) (A) (A) (A) (A)
                 (A) (A) (A) (A) (A) (A) (A) (A) (A) (A) (A) (A)
                 (A) (A) (A) (A) (A) (A) (A) (A) (A) (A) (A) (A)
                 (A) (A) (A) (A) (A) (A) (A) (A) (A) (A) (A) (A)
                 (A) (A) (A) (A) (A) (A) (A) (A) (A) (A) (A) (A)
                 (A) (A) (A) (A) (A) (A) (A) (A) (A) (A) (A) (A)
                 (A) (A) (A) (A) (A) (A) (A) (A) (A) (A) (A) (A)
                 (A) (A) (A) (A) (A) (A) (A) (A) (A) (A) (A) (A)
                 (A) (A) (A) (A) (A) (A) (A) (A) (A) (A) (A) (A)
                 (A) (A) (A) (A) (A) (A) (A) (A) (A) (A) (A) (A)
                 (A) (A) (A) (A) (A) (A) (A) (A) (A) (A) (A) (A)
                 (A) (A) (A) (A) (A) (A) (A) (A) (A) (A) (A) (A)
                 (A) (A) (A) (A) (A) (A) (A) (A) (A) (A) (A) (A)
                 (A) (A) (A) (A) (A) (A) (A) (A) (A) (A) (A) (A)
                 (A) (A) (A) (A) (A) (A) (A) (A) (A) (A) (A) (A)
                 (A) (A) (A) (A) (A) (A) (A) (A) (A) (A) (A) (A)
                 (A) (A) (A) (A) (A) (A) (A) (A) (A) (A) (A) (A)
 The electronic state is 1-A.
 Alpha  occ. eigenvalues --  -19.18281 -19.17583 -19.17350 -19.17224 -19.16710
 Alpha  occ. eigenvalues --  -10.29623 -10.25130 -10.24682 -10.24599 -10.24512
 Alpha  occ. eigenvalues --  -10.23946  -1.11258  -1.05580  -1.03869  -1.02264
 Alpha  occ. eigenvalues --   -1.01201  -0.79105  -0.77872  -0.67880  -0.66056
 Alpha  occ. eigenvalues --   -0.62409  -0.58074  -0.55589  -0.53895  -0.52096
 Alpha  occ. eigenvalues --   -0.50233  -0.48091  -0.47001  -0.45377  -0.44572
 Alpha  occ. eigenvalues --   -0.43596  -0.41605  -0.39858  -0.39027  -0.36993
 Alpha  occ. eigenvalues --   -0.35962  -0.35426  -0.34834  -0.31504  -0.30447
 Alpha  occ. eigenvalues --   -0.28956  -0.27675  -0.26666
 Alpha virt. eigenvalues --    0.00587   0.01496   0.02041   0.02549   0.04409
 Alpha virt. eigenvalues --    0.04651   0.04905   0.05452   0.05775   0.08299
 Alpha virt. eigenvalues --    0.08783   0.09602   0.10075   0.10481   0.11380
 Alpha virt. eigenvalues --    0.12052   0.12671   0.13544   0.13748   0.14335
 Alpha virt. eigenvalues --    0.15581   0.15748   0.16083   0.16384   0.17099
 Alpha virt. eigenvalues --    0.18203   0.18279   0.19110   0.20998   0.21346
 Alpha virt. eigenvalues --    0.21652   0.21851   0.22746   0.23036   0.24078
 Alpha virt. eigenvalues --    0.24237   0.25200   0.25720   0.26533   0.26812
 Alpha virt. eigenvalues --    0.28196   0.28969   0.29320   0.29462   0.29995
 Alpha virt. eigenvalues --    0.30684   0.31663   0.31978   0.32429   0.33045
 Alpha virt. eigenvalues --    0.34032   0.35084   0.35349   0.35787   0.35942
 Alpha virt. eigenvalues --    0.36862   0.37839   0.38588   0.39126   0.39645
 Alpha virt. eigenvalues --    0.41699   0.41905   0.43069   0.44312   0.44696
 Alpha virt. eigenvalues --    0.46578   0.62406   0.66143   0.67368   0.68833
 Alpha virt. eigenvalues --    0.70852   0.74059   0.74570   0.77281   0.77962
 Alpha virt. eigenvalues --    0.78450   0.79337   0.80231   0.83018   0.84947
 Alpha virt. eigenvalues --    0.86570   0.90687   0.93130   0.93743   0.96975
 Alpha virt. eigenvalues --    0.99696   1.00288   1.02692   1.04456   1.05694
 Alpha virt. eigenvalues --    1.07009   1.08365   1.09470   1.10834   1.14253
 Alpha virt. eigenvalues --    1.17935   1.21512   1.23105   1.24962   1.26563
 Alpha virt. eigenvalues --    1.27515   1.29256   1.30381   1.31561   1.32687
 Alpha virt. eigenvalues --    1.34293   1.35585   1.36701   1.39015   1.39724
 Alpha virt. eigenvalues --    1.40927   1.42848   1.45251   1.47042   1.49548
 Alpha virt. eigenvalues --    1.50068   1.53072   1.57618   1.58137   1.59223
 Alpha virt. eigenvalues --    1.61540   1.63103   1.64421   1.65704   1.68680
 Alpha virt. eigenvalues --    1.71147   1.71835   1.76675   1.77625   1.79144
 Alpha virt. eigenvalues --    1.81789   1.81919   1.83231   1.85167   1.86499
 Alpha virt. eigenvalues --    1.87338   1.92549   1.93169   1.95470   1.96117
 Alpha virt. eigenvalues --    1.99600   2.01665   2.02190   2.04766   2.08790
 Alpha virt. eigenvalues --    2.09292   2.11848   2.13784   2.15116   2.15921
 Alpha virt. eigenvalues --    2.19495   2.21689   2.24060   2.25235   2.31413
 Alpha virt. eigenvalues --    2.34020   2.35609   2.39200   2.41809   2.43413
 Alpha virt. eigenvalues --    2.45105   2.47028   2.47765   2.49685   2.50481
 Alpha virt. eigenvalues --    2.53883   2.57313   2.58829   2.60598   2.61640
 Alpha virt. eigenvalues --    2.64345   2.65059   2.67503   2.68886   2.71243
 Alpha virt. eigenvalues --    2.71900   2.73671   2.75188   2.78347   2.80554
 Alpha virt. eigenvalues --    2.82729   2.85636   2.86805   2.88188   2.90430
 Alpha virt. eigenvalues --    2.93197   2.94097   2.97130   2.98997   3.02139
 Alpha virt. eigenvalues --    3.06333   3.07730   3.11909   3.19411   3.26096
 Alpha virt. eigenvalues --    3.33885   3.39228   3.40259   3.43690   3.47996
 Alpha virt. eigenvalues --    3.51209   3.51596   3.54473   3.58079   3.59840
 Alpha virt. eigenvalues --    4.22442   4.30496   4.37694   4.49410   4.55584
 Alpha virt. eigenvalues --    4.57410   4.59628   4.72240   4.76461   4.94762
 Alpha virt. eigenvalues --    5.10706
          Condensed to atoms (all electrons):
              1          2          3          4          5          6
     1  C    5.534970  -0.050722  -0.217832   0.048360  -0.035789  -0.195265
     2  C   -0.050722   6.521283  -0.639624   0.151741   0.330712  -0.563959
     3  C   -0.217832  -0.639624   6.114835  -0.353242  -0.143525   0.400652
     4  C    0.048360   0.151741  -0.353242   5.813375   0.184409  -0.225314
     5  C   -0.035789   0.330712  -0.143525   0.184409   5.959783  -0.524600
     6  C   -0.195265  -0.563959   0.400652  -0.225314  -0.524600   6.661059
     7  O   -0.026158   0.058563   0.255281   0.006020  -0.199691  -0.066510
     8  O    0.149370  -0.103769   0.324105   0.037073  -0.188852   0.023583
     9  O    0.018205  -0.028128  -0.019841  -0.015136   0.031326   0.133212
    10  O    0.002717  -0.004212   0.057815   0.179533  -0.141254  -0.038248
    11  O    0.044696  -0.071334  -0.149234  -0.051559   0.150945   0.067829
    12  H    0.463678  -0.137932   0.021683   0.014017  -0.001283  -0.006013
    13  H    0.410452  -0.003686  -0.019632   0.002275  -0.001938  -0.004895
    14  H    0.008992   0.339626   0.023095   0.000355  -0.008648  -0.032889
    15  H    0.017400   0.015304   0.371412   0.007423  -0.037583   0.001647
    16  H    0.004683  -0.021896  -0.014361   0.359002  -0.005832  -0.022509
    17  H   -0.000874  -0.019241  -0.021282   0.012791   0.286079   0.043926
    18  H    0.032728  -0.141425   0.002887  -0.125557   0.022974   0.518421
    19  H    0.005661  -0.049462   0.000190  -0.059769   0.007383   0.082700
    20  H   -0.000405   0.021704  -0.012859   0.026239   0.029031  -0.065508
    21  H   -0.005691  -0.000942   0.035533  -0.054370   0.028556  -0.011855
              7          8          9         10         11         12
     1  C   -0.026158   0.149370   0.018205   0.002717   0.044696   0.463678
     2  C    0.058563  -0.103769  -0.028128  -0.004212  -0.071334  -0.137932
     3  C    0.255281   0.324105  -0.019841   0.057815  -0.149234   0.021683
     4  C    0.006020   0.037073  -0.015136   0.179533  -0.051559   0.014017
     5  C   -0.199691  -0.188852   0.031326  -0.141254   0.150945  -0.001283
     6  C   -0.066510   0.023583   0.133212  -0.038248   0.067829  -0.006013
     7  O    8.464900  -0.066199   0.002005   0.000847   0.027416   0.010876
     8  O   -0.066199   8.408731  -0.001069  -0.003720  -0.008071  -0.046797
     9  O    0.002005  -0.001069   8.322656  -0.018720  -0.003088   0.001113
    10  O    0.000847  -0.003720  -0.018720   8.397683  -0.014995   0.000087
    11  O    0.027416  -0.008071  -0.003088  -0.014995   8.412624   0.001641
    12  H    0.010876  -0.046797   0.001113   0.000087   0.001641   0.548181
    13  H    0.000145  -0.052142  -0.000358   0.000012   0.000496  -0.040695
    14  H   -0.028466   0.006486  -0.000098  -0.000122   0.000562   0.002695
    15  H   -0.042618  -0.049288   0.000054  -0.000469   0.005571  -0.000292
    16  H    0.009350  -0.002083  -0.010628  -0.044272   0.006156   0.000002
    17  H    0.007417   0.003153  -0.000547   0.002648  -0.039782  -0.000009
    18  H    0.012664  -0.002471  -0.065554   0.003274   0.005583   0.002806
    19  H    0.004064  -0.000223   0.252435  -0.000233   0.000126  -0.000005
    20  H   -0.000121   0.000096   0.016601   0.238481  -0.000873  -0.000002
    21  H   -0.001205  -0.000250  -0.000020   0.024786   0.232605  -0.000075
             13         14         15         16         17         18
     1  C    0.410452   0.008992   0.017400   0.004683  -0.000874   0.032728
     2  C   -0.003686   0.339626   0.015304  -0.021896  -0.019241  -0.141425
     3  C   -0.019632   0.023095   0.371412  -0.014361  -0.021282   0.002887
     4  C    0.002275   0.000355   0.007423   0.359002   0.012791  -0.125557
     5  C   -0.001938  -0.008648  -0.037583  -0.005832   0.286079   0.022974
     6  C   -0.004895  -0.032889   0.001647  -0.022509   0.043926   0.518421
     7  O    0.000145  -0.028466  -0.042618   0.009350   0.007417   0.012664
     8  O   -0.052142   0.006486  -0.049288  -0.002083   0.003153  -0.002471
     9  O   -0.000358  -0.000098   0.000054  -0.010628  -0.000547  -0.065554
    10  O    0.000012  -0.000122  -0.000469  -0.044272   0.002648   0.003274
    11  O    0.000496   0.000562   0.005571   0.006156  -0.039782   0.005583
    12  H   -0.040695   0.002695  -0.000292   0.000002  -0.000009   0.002806
    13  H    0.546846  -0.004887   0.000165   0.000004   0.000008   0.000247
    14  H   -0.004887   0.508219  -0.000099  -0.000148   0.000010   0.002175
    15  H    0.000165  -0.000099   0.542541   0.000026  -0.005692   0.000026
    16  H    0.000004  -0.000148   0.000026   0.568407  -0.005285   0.004425
    17  H    0.000008   0.000010  -0.005692  -0.005285   0.583414  -0.000144
    18  H    0.000247   0.002175   0.000026   0.004425  -0.000144   0.540183
    19  H    0.000003  -0.000046   0.000002   0.004597  -0.000021   0.006705
    20  H    0.000000  -0.000011   0.000004  -0.003617  -0.000201  -0.001487
    21  H    0.000002  -0.000007  -0.000219   0.000690  -0.003386  -0.000057
             19         20         21
     1  C    0.005661  -0.000405  -0.005691
     2  C   -0.049462   0.021704  -0.000942
     3  C    0.000190  -0.012859   0.035533
     4  C   -0.059769   0.026239  -0.054370
     5  C    0.007383   0.029031   0.028556
     6  C    0.082700  -0.065508  -0.011855
     7  O    0.004064  -0.000121  -0.001205
     8  O   -0.000223   0.000096  -0.000250
     9  O    0.252435   0.016601  -0.000020
    10  O   -0.000233   0.238481   0.024786
    11  O    0.000126  -0.000873   0.232605
    12  H   -0.000005  -0.000002  -0.000075
    13  H    0.000003   0.000000   0.000002
    14  H   -0.000046  -0.000011  -0.000007
    15  H    0.000002   0.000004  -0.000219
    16  H    0.004597  -0.003617   0.000690
    17  H   -0.000021  -0.000201  -0.003386
    18  H    0.006705  -0.001487  -0.000057
    19  H    0.341723  -0.000503   0.000001
    20  H   -0.000503   0.341528  -0.000827
    21  H    0.000001  -0.000827   0.345051
 Mulliken atomic charges:
              1
     1  C   -0.209176
     2  C    0.397398
     3  C   -0.016058
     4  C    0.042335
     5  C    0.257799
     6  C   -0.175464
     7  O   -0.428578
     8  O   -0.427663
     9  O   -0.614419
    10  O   -0.641638
    11  O   -0.617314
    12  H    0.166324
    13  H    0.167578
    14  H    0.183205
    15  H    0.174685
    16  H    0.173288
    17  H    0.157016
    18  H    0.181599
    19  H    0.404673
    20  H    0.412729
    21  H    0.411681
 Sum of Mulliken atomic charges =   0.00000
 Mulliken charges with hydrogens summed into heavy atoms:
              1
     1  C    0.124727
     2  C    0.580602
     3  C    0.158628
     4  C    0.215623
     5  C    0.414815
     6  C    0.006134
     7  O   -0.428578
     8  O   -0.427663
     9  O   -0.209746
    10  O   -0.228910
    11  O   -0.205633
 Sum of Mulliken charges with hydrogens summed into heavy atoms =   0.00000
 Electronic spatial extent (au):  <R**2>=           1445.8249
 Charge=              0.0000 electrons
 Dipole moment (field-independent basis, Debye):
    X=             -2.4395    Y=             -2.9250    Z=              1.5657  Tot=              4.1181
 Quadrupole moment (field-independent basis, Debye-Ang):
   XX=            -69.2570   YY=            -67.3034   ZZ=            -62.7860
   XY=             -3.4887   XZ=             -1.4522   YZ=              3.0329
 Traceless Quadrupole moment (field-independent basis, Debye-Ang):
   XX=             -2.8082   YY=             -0.8546   ZZ=              3.6628
   XY=             -3.4887   XZ=             -1.4522   YZ=              3.0329
 Octapole moment (field-independent basis, Debye-Ang**2):
  XXX=            -24.4285  YYY=            -11.5319  ZZZ=             -4.6330  XYY=              5.0329
  XXY=             -8.2070  XXZ=              5.5153  XZZ=             -6.2125  YZZ=              2.4701
  YYZ=             12.7707  XYZ=             22.2310
 Hexadecapole moment (field-independent basis, Debye-Ang**3):
 XXXX=           -858.5449 YYYY=           -655.8881 ZZZZ=           -261.9357 XXXY=             -4.9995
 XXXZ=              8.5262 YYYX=            -24.2312 YYYZ=            -21.8004 ZZZX=             -2.0341
 ZZZY=              2.9159 XXYY=           -274.3463 XXZZ=           -177.8821 YYZZ=           -146.6358
 XXYZ=             -9.3010 YYXZ=             -9.8727 ZZXY=              5.1918
 N-N= 7.256135228185D+02 E-N=-2.881154249072D+03  KE= 6.053475195604D+02

 Test job not archived.
 1\1\GINC-COMPUTE-10-3\SP\RB3LYP\6-31+G(d,p)\C6H10O5\ASAROTTI.IQUIR\15-
 Apr-2019\0\\# B3LYP/6-31+G** test scrf=(pcm,solvent=water,smd,dovacuum
 )\\comment\\0,1\C,0,-1.655428,0.877239,-0.973209\C,0,-0.55902,1.374801
 ,-0.004802\C,0,-1.330718,-0.543117,0.784323\C,0,1.173163,-0.38229,0.45
 0945\C,0,-0.021889,-1.349633,0.476137\C,0,0.860623,0.874699,-0.373604\
 O,0,-0.978603,0.758504,1.233472\O,0,-2.126546,-0.337083,-0.365247\O,0,
 1.886173,1.85336,-0.209756\O,0,2.284906,-1.096465,-0.081845\O,0,-0.141
 079,-2.017313,-0.770627\H,0,-1.275778,0.674702,-1.9794\H,0,-2.48967,1.
 582976,-1.037185\H,0,-0.563501,2.457567,0.133067\H,0,-1.939021,-1.0251
 12,1.551346\H,0,1.382789,-0.067461,1.48265\H,0,0.137816,-2.077659,1.28
 5626\H,0,0.899661,0.616818,-1.435834\H,0,1.913784,2.105602,0.729278\H,
 0,2.958178,-0.434372,-0.314671\H,0,0.776547,-2.23127,-1.021587\\Versio
 n=EM64L-G09RevC.01\State=1-A\HF=-610.8005127\RMSD=4.504e-09\Dipole=0.9
 597737,1.1508003,0.615994\Quadrupole=-2.0877891,-0.6353963,2.7231854,-
 2.5937812,1.0796464,-2.2548703\PG=C01 [X(C6H10O5)]\\@


 I CLAIM NOT TO HAVE CONTROLLED EVENTS,
 BUT CONFESS PLAINLY THAT EVENTS HAVE CONTROLLED ME.

                                         A. LINCOLN
 Job cpu time:  0 days  0 hours  8 minutes  8.7 seconds.
 File lengths (MBytes):  RWF=     56 Int=      0 D2E=      0 Chk=      4 Scr=      1
 Normal termination of Gaussian 09 at Mon Apr 15 18:28:11 2019.
