 Entering Gaussian System, Link 0=g09
 Input=/home/asarotti.iquir/SCF3/05_SSR_Levo05_OPTB_energy_b3lyp_smd.gjc
 Output=/home/asarotti.iquir/SCF3/05_SSR_Levo05_OPTB_energy_b3lyp_smd.log
 Initial command:
 /share/apps/Gaussian09/EM64T.SSE4.2-enabled/g09/l1.exe /tmp/Gau-20028.inp -scrdir=/tmp/
 Entering Link 1 = /share/apps/Gaussian09/EM64T.SSE4.2-enabled/g09/l1.exe PID=     20029.
  
 Copyright (c) 1988,1990,1992,1993,1995,1998,2003,2009,2011,
            Gaussian, Inc.  All Rights Reserved.
  
 This is part of the Gaussian(R) 09 program.  It is based on
 the Gaussian(R) 03 system (copyright 2003, Gaussian, Inc.),
 the Gaussian(R) 98 system (copyright 1998, Gaussian, Inc.),
 the Gaussian(R) 94 system (copyright 1995, Gaussian, Inc.),
 the Gaussian 92(TM) system (copyright 1992, Gaussian, Inc.),
 the Gaussian 90(TM) system (copyright 1990, Gaussian, Inc.),
 the Gaussian 88(TM) system (copyright 1988, Gaussian, Inc.),
 the Gaussian 86(TM) system (copyright 1986, Carnegie Mellon
 University), and the Gaussian 82(TM) system (copyright 1983,
 Carnegie Mellon University). Gaussian is a federally registered
 trademark of Gaussian, Inc.
  
 This software contains proprietary and confidential information,
 including trade secrets, belonging to Gaussian, Inc.
  
 This software is provided under written license and may be
 used, copied, transmitted, or stored only in accord with that
 written license.
  
 The following legend is applicable only to US Government
 contracts under FAR:
  
                    RESTRICTED RIGHTS LEGEND
  
 Use, reproduction and disclosure by the US Government is
 subject to restrictions as set forth in subparagraphs (a)
 and (c) of the Commercial Computer Software - Restricted
 Rights clause in FAR 52.227-19.
  
 Gaussian, Inc.
 340 Quinnipiac St., Bldg. 40, Wallingford CT 06492
  
  
 ---------------------------------------------------------------
 Warning -- This program may not be used in any manner that
 competes with the business of Gaussian, Inc. or will provide
 assistance to any competitor of Gaussian, Inc.  The licensee
 of this program is prohibited from giving any competitor of
 Gaussian, Inc. access to this program.  By using this program,
 the user acknowledges that Gaussian, Inc. is engaged in the
 business of creating and licensing software in the field of
 computational chemistry and represents and warrants to the
 licensee that it is not a competitor of Gaussian, Inc. and that
 it will not use this program in any manner prohibited above.
 ---------------------------------------------------------------
  

 Cite this work as:
 Gaussian 09, Revision C.01,
 M. J. Frisch, G. W. Trucks, H. B. Schlegel, G. E. Scuseria, 
 M. A. Robb, J. R. Cheeseman, G. Scalmani, V. Barone, B. Mennucci, 
 G. A. Petersson, H. Nakatsuji, M. Caricato, X. Li, H. P. Hratchian, 
 A. F. Izmaylov, J. Bloino, G. Zheng, J. L. Sonnenberg, M. Hada, 
 M. Ehara, K. Toyota, R. Fukuda, J. Hasegawa, M. Ishida, T. Nakajima, 
 Y. Honda, O. Kitao, H. Nakai, T. Vreven, J. A. Montgomery, Jr., 
 J. E. Peralta, F. Ogliaro, M. Bearpark, J. J. Heyd, E. Brothers, 
 K. N. Kudin, V. N. Staroverov, T. Keith, R. Kobayashi, J. Normand, 
 K. Raghavachari, A. Rendell, J. C. Burant, S. S. Iyengar, J. Tomasi, 
 M. Cossi, N. Rega, J. M. Millam, M. Klene, J. E. Knox, J. B. Cross, 
 V. Bakken, C. Adamo, J. Jaramillo, R. Gomperts, R. E. Stratmann, 
 O. Yazyev, A. J. Austin, R. Cammi, C. Pomelli, J. W. Ochterski, 
 R. L. Martin, K. Morokuma, V. G. Zakrzewski, G. A. Voth, 
 P. Salvador, J. J. Dannenberg, S. Dapprich, A. D. Daniels, 
 O. Farkas, J. B. Foresman, J. V. Ortiz, J. Cioslowski, 
 and D. J. Fox, Gaussian, Inc., Wallingford CT, 2010.
 
 ******************************************
 Gaussian 09:  EM64L-G09RevC.01 23-Sep-2011
                15-Apr-2019 
 ******************************************
 %nprocshared=4
 Will use up to    4 processors via shared memory.
 -----------------------------------------------------------
 # B3LYP/6-31+G** test scrf=(pcm,solvent=water,smd,dovacuum)
 -----------------------------------------------------------
 1/38=1/1;
 2/12=2,17=6,18=5,40=1/2;
 3/5=1,6=6,7=111,11=2,16=1,25=1,30=1,70=32101,72=1,74=-5/1,2,3;
 4//1;
 5/5=2,38=5,53=1/2;
 6/7=2,8=2,9=2,10=2,28=1/1;
 99/5=1,9=1/99;
 -------
 comment
 -------
 Charge =  0 Multiplicity = 1
 Symbolic Z-Matrix:
 6                    -0.49127   1.57608   1.09485 
 6                    -1.36021   0.76545   0.11952 
 6                     0.62985   0.99789  -0.82504 
 6                     0.17682  -1.2607    0.2644 
 6                     1.00148  -0.49675  -0.79711 
 6                    -1.28432  -0.7495    0.33526 
 8                    -0.74495   1.09631  -1.14258 
 8                     0.79362   1.62229   0.44126 
 8                    -2.09131  -1.34052  -0.67947 
 8                     0.75882  -1.12037   1.55525 
 8                     2.36907  -0.72361  -0.4663 
 1                    -0.38664   1.1082    2.07498 
 1                    -0.8707    2.59742   1.20616 
 1                    -2.40072   1.09217   0.07913 
 1                     1.21023   1.54888  -1.57318 
 1                     0.15501  -2.32638  -0.01472 
 1                     0.76528  -0.90166  -1.79032 
 1                    -1.67006  -0.98937   1.33677 
 1                    -2.14919  -2.29104  -0.49056 
 1                     1.70146  -0.93009   1.39512 
 1                     2.92912  -0.17592  -1.03995 
 
                          Input orientation:                          
 ---------------------------------------------------------------------
 Center     Atomic      Atomic             Coordinates (Angstroms)
 Number     Number       Type             X           Y           Z
 ---------------------------------------------------------------------
      1          6           0       -0.491266    1.576081    1.094845
      2          6           0       -1.360211    0.765452    0.119520
      3          6           0        0.629849    0.997894   -0.825037
      4          6           0        0.176817   -1.260697    0.264395
      5          6           0        1.001485   -0.496745   -0.797107
      6          6           0       -1.284316   -0.749497    0.335262
      7          8           0       -0.744954    1.096312   -1.142585
      8          8           0        0.793624    1.622290    0.441255
      9          8           0       -2.091306   -1.340515   -0.679467
     10          8           0        0.758824   -1.120373    1.555254
     11          8           0        2.369070   -0.723607   -0.466295
     12          1           0       -0.386636    1.108197    2.074979
     13          1           0       -0.870704    2.597423    1.206157
     14          1           0       -2.400725    1.092171    0.079128
     15          1           0        1.210232    1.548877   -1.573181
     16          1           0        0.155006   -2.326381   -0.014721
     17          1           0        0.765280   -0.901658   -1.790323
     18          1           0       -1.670057   -0.989370    1.336770
     19          1           0       -2.149194   -2.291043   -0.490556
     20          1           0        1.701461   -0.930087    1.395123
     21          1           0        2.929119   -0.175917   -1.039951
 ---------------------------------------------------------------------
                    Distance matrix (angstroms):
                    1          2          3          4          5
     1  C    0.000000
     2  C    1.537350   0.000000
     3  C    2.297204   2.215075   0.000000
     4  C    3.030395   2.547297   2.548202   0.000000
     5  C    3.178741   2.830363   1.540402   1.546120   0.000000
     6  C    2.571810   1.532115   2.839665   1.549599   2.563402
     7  O    2.302309   1.442539   1.414428   2.895643   2.388982
     8  O    1.442310   2.340233   1.421333   2.953531   2.463139
     9  O    3.770258   2.368117   3.590826   2.457972   3.207981
    10  O    3.007585   3.179305   3.188961   1.422934   2.445690
    11  O    3.988389   4.058080   2.473288   2.372414   1.425199
    12  H    1.091112   2.211141   3.074980   3.034362   3.570938
    13  H    1.095218   2.185524   2.989298   4.107226   4.134251
    14  H    2.216277   1.091351   3.163982   3.494858   3.855836
    15  H    3.164522   3.175873   1.095512   3.512597   2.197825
    16  H    4.108286   3.445771   3.454402   1.101846   2.162458
    17  H    4.005283   3.308242   2.135045   2.167271   1.098283
    18  H    2.833657   2.158032   3.729906   2.152801   3.454453
    19  H    4.496317   3.215097   4.318804   2.653656   3.638716
    20  H    3.343516   3.725030   3.129628   1.926756   2.341714
    21  H    4.396122   4.541905   2.590495   3.233146   1.969182
                    6          7          8          9         10
     6  C    0.000000
     7  O    2.425274   0.000000
     8  O    3.155066   2.269895   0.000000
     9  O    1.424854   2.822281   4.284513   0.000000
    10  O    2.408392   3.801760   2.960474   3.628454   0.000000
    11  O    3.740373   3.669689   2.967981   4.507879   2.614761
    12  H    2.698791   3.237476   2.079990   4.060673   2.559046
    13  H    3.483017   2.790293   2.075078   4.533520   4.074216
    14  H    2.168805   2.057712   3.258225   2.566937   4.130018
    15  H    3.891972   2.052555   2.058374   4.477439   4.137121
    16  H    2.163492   3.714409   4.025885   2.541601   2.069752
    17  H    2.956706   2.586939   3.369133   3.096236   3.352725
    18  H    1.099706   3.369434   3.700330   2.089489   2.442204
    19  H    1.950988   3.724407   4.984238   0.970846   3.743311
    20  H    3.173450   4.065858   2.872048   4.342517   0.974892
    21  H    4.469143   3.889462   3.160357   5.166324   3.512445
                   11         12         13         14         15
    11  O    0.000000
    12  H    4.172229   0.000000
    13  H    4.931782   1.790801   0.000000
    14  H    5.132785   2.835530   2.424241   0.000000
    15  H    2.780699   4.006652   3.626908   3.997214   0.000000
    16  H    2.770358   4.056667   5.175565   4.269317   4.308123
    17  H    2.087318   4.506327   4.888651   4.182558   2.500051
    18  H    4.431278   2.567471   3.677106   2.539361   4.817321
    19  H    4.782484   4.609058   5.330147   3.440050   5.215631
    20  H    1.988269   2.996157   4.369790   4.759128   3.898384
    21  H    0.970928   4.727152   5.212971   5.591746   2.492754
                   16         17         18         19         20
    16  H    0.000000
    17  H    2.356912   0.000000
    18  H    2.635333   3.964501   0.000000
    19  H    2.353084   3.480509   2.294133   0.000000
    20  H    2.515715   3.320288   3.372544   4.498392   0.000000
    21  H    3.656678   2.402490   5.240508   5.528549   2.829400
                   21
    21  H    0.000000
 Stoichiometry    C6H10O5
 Framework group  C1[X(C6H10O5)]
 Deg. of freedom    57
 Full point group                 C1      NOp   1
 Largest Abelian subgroup         C1      NOp   1
 Largest concise Abelian subgroup C1      NOp   1
                         Standard orientation:                         
 ---------------------------------------------------------------------
 Center     Atomic      Atomic             Coordinates (Angstroms)
 Number     Number       Type             X           Y           Z
 ---------------------------------------------------------------------
      1          6           0       -0.491266    1.576081    1.094845
      2          6           0       -1.360211    0.765452    0.119520
      3          6           0        0.629849    0.997894   -0.825037
      4          6           0        0.176817   -1.260697    0.264395
      5          6           0        1.001485   -0.496745   -0.797107
      6          6           0       -1.284316   -0.749497    0.335262
      7          8           0       -0.744954    1.096312   -1.142585
      8          8           0        0.793624    1.622290    0.441255
      9          8           0       -2.091306   -1.340514   -0.679467
     10          8           0        0.758824   -1.120373    1.555254
     11          8           0        2.369070   -0.723607   -0.466295
     12          1           0       -0.386636    1.108197    2.074979
     13          1           0       -0.870703    2.597423    1.206157
     14          1           0       -2.400725    1.092172    0.079128
     15          1           0        1.210232    1.548877   -1.573181
     16          1           0        0.155006   -2.326381   -0.014721
     17          1           0        0.765280   -0.901658   -1.790323
     18          1           0       -1.670057   -0.989370    1.336770
     19          1           0       -2.149194   -2.291042   -0.490556
     20          1           0        1.701461   -0.930087    1.395123
     21          1           0        2.929119   -0.175918   -1.039951
 ---------------------------------------------------------------------
 Rotational constants (GHZ):      1.4710090      1.2622399      1.0119521
 Standard basis: 6-31+G(d,p) (6D, 7F)
 There are   259 symmetry adapted basis functions of A   symmetry.
 Integral buffers will be    131072 words long.
 Raffenetti 2 integral format.
 Two-electron integral symmetry is turned on.
   259 basis functions,   422 primitive gaussians,   259 cartesian basis functions
    43 alpha electrons       43 beta electrons
       nuclear repulsion energy       733.3630408254 Hartrees.
 NAtoms=   21 NActive=   21 NUniq=   21 SFac= 1.00D+00 NAtFMM=   60 NAOKFM=F Big=F
 ------------------------------------------------------------------------------
 Polarizable Continuum Model (PCM)
 =================================
 Model                : C-PCM.
 Atomic radii         : SMD-Coulomb.
 Polarization charges : Total charges.
 Charge compensation  : None.
 Solution method      : Matrix inversion.
 Cavity type          : VdW (van der Waals Surface) (Alpha=1.000).
 Cavity algorithm     : GePol (No added spheres)
                        Default sphere list used, NSphG=   21.
                        Lebedev-Laikov grids with approx.  5.0 points / Ang**2.
                        Smoothing algorithm: Karplus/York (Gamma=1.0000).
                        Polarization charges: spherical gaussians, with
                                              point-specific exponents (IZeta= 3).
                        Self-potential: point-specific (ISelfS= 7).
                        Self-field    : sphere-specific E.n sum rule (ISelfD= 2).
 Solvent              : Water, Eps=  78.355300 Eps(inf)=   1.777849
 ------------------------------------------------------------------------------
 ------------------------------------------------------------------------------
 Atomic radii for non-electrostatic terms: SMD-CDS.
 ------------------------------------------------------------------------------
 Nuclear repulsion after PCM non-electrostatic terms =      733.3681421885 Hartrees.
 One-electron integrals computed using PRISM.
 NBasis=   259 RedAO= T  NBF=   259
 NBsUse=   259 1.00D-06 NBFU=   259
 Harris functional with IExCor=  402 diagonalized for initial guess.
 ExpMin= 4.38D-02 ExpMax= 5.48D+03 ExpMxC= 8.25D+02 IAcc=2 IRadAn=         4 AccDes= 0.00D+00
 HarFok:  IExCor=  402 AccDes= 0.00D+00 IRadAn=         4 IDoV= 1
 ScaDFX=  1.000000  1.000000  1.000000  1.000000
 FoFCou: FMM=F IPFlag=           0 FMFlag=      100000 FMFlg1=           0
         NFxFlg=           0 DoJE=T BraDBF=F KetDBF=T FulRan=T
         Omega=  0.000000  0.000000  1.000000  0.000000  0.000000 ICntrl=     500 IOpCl=  0
         NMat0=    1 NMatS0=    1 NMatT0=    0 NMatD0=    1 NMtDS0=    0 NMtDT0=    0
         I1Cent=           4 NGrid=           0.
 Petite list used in FoFCou.
 Initial guess orbital symmetries:
       Occupied  (A) (A) (A) (A) (A) (A) (A) (A) (A) (A) (A) (A)
                 (A) (A) (A) (A) (A) (A) (A) (A) (A) (A) (A) (A)
                 (A) (A) (A) (A) (A) (A) (A) (A) (A) (A) (A) (A)
                 (A) (A) (A) (A) (A) (A) (A)
       Virtual   (A) (A) (A) (A) (A) (A) (A) (A) (A) (A) (A) (A)
                 (A) (A) (A) (A) (A) (A) (A) (A) (A) (A) (A) (A)
                 (A) (A) (A) (A) (A) (A) (A) (A) (A) (A) (A) (A)
                 (A) (A) (A) (A) (A) (A) (A) (A) (A) (A) (A) (A)
                 (A) (A) (A) (A) (A) (A) (A) (A) (A) (A) (A) (A)
                 (A) (A) (A) (A) (A) (A) (A) (A) (A) (A) (A) (A)
                 (A) (A) (A) (A) (A) (A) (A) (A) (A) (A) (A) (A)
                 (A) (A) (A) (A) (A) (A) (A) (A) (A) (A) (A) (A)
                 (A) (A) (A) (A) (A) (A) (A) (A) (A) (A) (A) (A)
                 (A) (A) (A) (A) (A) (A) (A) (A) (A) (A) (A) (A)
                 (A) (A) (A) (A) (A) (A) (A) (A) (A) (A) (A) (A)
                 (A) (A) (A) (A) (A) (A) (A) (A) (A) (A) (A) (A)
                 (A) (A) (A) (A) (A) (A) (A) (A) (A) (A) (A) (A)
                 (A) (A) (A) (A) (A) (A) (A) (A) (A) (A) (A) (A)
                 (A) (A) (A) (A) (A) (A) (A) (A) (A) (A) (A) (A)
                 (A) (A) (A) (A) (A) (A) (A) (A) (A) (A) (A) (A)
                 (A) (A) (A) (A) (A) (A) (A) (A) (A) (A) (A) (A)
                 (A) (A) (A) (A) (A) (A) (A) (A) (A) (A) (A) (A)
 The electronic state of the initial guess is 1-A.
 Requested convergence on RMS density matrix=1.00D-08 within 128 cycles.
 Requested convergence on MAX density matrix=1.00D-06.
 Requested convergence on             energy=1.00D-06.
 No special actions if energy rises.
 Error on total polarization charges =  0.05665
 SCF Done:  E(RB3LYP) =  -610.805804893     A.U. after   12 cycles
             Convg  =    0.7171D-08             -V/T =  2.0090
 SMD-CDS (non-electrostatic) energy       (kcal/mol) =       3.20
 (included in total energy above)

 **********************************************************************

            Population analysis using the SCF density.

 **********************************************************************

 Orbital symmetries:
       Occupied  (A) (A) (A) (A) (A) (A) (A) (A) (A) (A) (A) (A)
                 (A) (A) (A) (A) (A) (A) (A) (A) (A) (A) (A) (A)
                 (A) (A) (A) (A) (A) (A) (A) (A) (A) (A) (A) (A)
                 (A) (A) (A) (A) (A) (A) (A)
       Virtual   (A) (A) (A) (A) (A) (A) (A) (A) (A) (A) (A) (A)
                 (A) (A) (A) (A) (A) (A) (A) (A) (A) (A) (A) (A)
                 (A) (A) (A) (A) (A) (A) (A) (A) (A) (A) (A) (A)
                 (A) (A) (A) (A) (A) (A) (A) (A) (A) (A) (A) (A)
                 (A) (A) (A) (A) (A) (A) (A) (A) (A) (A) (A) (A)
                 (A) (A) (A) (A) (A) (A) (A) (A) (A) (A) (A) (A)
                 (A) (A) (A) (A) (A) (A) (A) (A) (A) (A) (A) (A)
                 (A) (A) (A) (A) (A) (A) (A) (A) (A) (A) (A) (A)
                 (A) (A) (A) (A) (A) (A) (A) (A) (A) (A) (A) (A)
                 (A) (A) (A) (A) (A) (A) (A) (A) (A) (A) (A) (A)
                 (A) (A) (A) (A) (A) (A) (A) (A) (A) (A) (A) (A)
                 (A) (A) (A) (A) (A) (A) (A) (A) (A) (A) (A) (A)
                 (A) (A) (A) (A) (A) (A) (A) (A) (A) (A) (A) (A)
                 (A) (A) (A) (A) (A) (A) (A) (A) (A) (A) (A) (A)
                 (A) (A) (A) (A) (A) (A) (A) (A) (A) (A) (A) (A)
                 (A) (A) (A) (A) (A) (A) (A) (A) (A) (A) (A) (A)
                 (A) (A) (A) (A) (A) (A) (A) (A) (A) (A) (A) (A)
                 (A) (A) (A) (A) (A) (A) (A) (A) (A) (A) (A) (A)
 The electronic state is 1-A.
 Alpha  occ. eigenvalues --  -19.18281 -19.17747 -19.17406 -19.16991 -19.16300
 Alpha  occ. eigenvalues --  -10.29284 -10.24978 -10.24795 -10.24770 -10.24670
 Alpha  occ. eigenvalues --  -10.23804  -1.11167  -1.05403  -1.03964  -1.02288
 Alpha  occ. eigenvalues --   -1.01020  -0.79364  -0.77771  -0.68048  -0.65810
 Alpha  occ. eigenvalues --   -0.62867  -0.58326  -0.54841  -0.53577  -0.52160
 Alpha  occ. eigenvalues --   -0.50045  -0.48856  -0.47564  -0.44788  -0.44265
 Alpha  occ. eigenvalues --   -0.43146  -0.41286  -0.40385  -0.39088  -0.37836
 Alpha  occ. eigenvalues --   -0.36130  -0.35569  -0.34450  -0.31390  -0.29776
 Alpha  occ. eigenvalues --   -0.29125  -0.28124  -0.25973
 Alpha virt. eigenvalues --    0.00598   0.01254   0.02214   0.03084   0.04200
 Alpha virt. eigenvalues --    0.04685   0.05228   0.05548   0.06146   0.08096
 Alpha virt. eigenvalues --    0.08736   0.09594   0.09943   0.10931   0.11833
 Alpha virt. eigenvalues --    0.12668   0.12946   0.13547   0.14078   0.14422
 Alpha virt. eigenvalues --    0.14951   0.15742   0.16033   0.16994   0.17562
 Alpha virt. eigenvalues --    0.18831   0.19358   0.19495   0.20395   0.20919
 Alpha virt. eigenvalues --    0.21776   0.22084   0.22413   0.23691   0.23709
 Alpha virt. eigenvalues --    0.24026   0.24954   0.25789   0.26438   0.27042
 Alpha virt. eigenvalues --    0.27732   0.28155   0.28971   0.29456   0.29925
 Alpha virt. eigenvalues --    0.30302   0.31345   0.31574   0.32423   0.32862
 Alpha virt. eigenvalues --    0.34276   0.34440   0.35580   0.36093   0.36963
 Alpha virt. eigenvalues --    0.37682   0.38131   0.38435   0.38767   0.40483
 Alpha virt. eigenvalues --    0.41103   0.41558   0.43387   0.45766   0.47038
 Alpha virt. eigenvalues --    0.48100   0.63809   0.66326   0.67011   0.68600
 Alpha virt. eigenvalues --    0.69387   0.69813   0.73851   0.75081   0.76925
 Alpha virt. eigenvalues --    0.78973   0.80098   0.81498   0.82085   0.84557
 Alpha virt. eigenvalues --    0.88850   0.89218   0.95146   0.96204   0.99240
 Alpha virt. eigenvalues --    0.99462   1.02399   1.03797   1.04408   1.07036
 Alpha virt. eigenvalues --    1.08436   1.09956   1.10928   1.11757   1.12259
 Alpha virt. eigenvalues --    1.16958   1.18179   1.21170   1.24884   1.25619
 Alpha virt. eigenvalues --    1.26529   1.28500   1.29543   1.30634   1.33214
 Alpha virt. eigenvalues --    1.34280   1.34908   1.36496   1.39291   1.41525
 Alpha virt. eigenvalues --    1.42033   1.44197   1.46411   1.48725   1.50346
 Alpha virt. eigenvalues --    1.52170   1.54599   1.56872   1.57978   1.60279
 Alpha virt. eigenvalues --    1.61102   1.64617   1.65989   1.66795   1.68761
 Alpha virt. eigenvalues --    1.70553   1.71949   1.73738   1.76219   1.79692
 Alpha virt. eigenvalues --    1.80109   1.83956   1.85158   1.88169   1.89438
 Alpha virt. eigenvalues --    1.90573   1.92298   1.93998   1.96893   1.97809
 Alpha virt. eigenvalues --    2.00495   2.02446   2.05702   2.06204   2.07067
 Alpha virt. eigenvalues --    2.10174   2.12300   2.12985   2.14147   2.15709
 Alpha virt. eigenvalues --    2.19166   2.20122   2.21227   2.25314   2.30120
 Alpha virt. eigenvalues --    2.30858   2.33497   2.38155   2.39846   2.42408
 Alpha virt. eigenvalues --    2.44755   2.46693   2.48969   2.50634   2.51707
 Alpha virt. eigenvalues --    2.53423   2.57466   2.61387   2.62221   2.62585
 Alpha virt. eigenvalues --    2.64426   2.67341   2.68622   2.70310   2.70965
 Alpha virt. eigenvalues --    2.72300   2.75260   2.76253   2.78535   2.79349
 Alpha virt. eigenvalues --    2.81861   2.84653   2.86619   2.87742   2.90314
 Alpha virt. eigenvalues --    2.93222   2.94711   2.96720   2.98822   3.01074
 Alpha virt. eigenvalues --    3.03204   3.06061   3.09219   3.12760   3.22355
 Alpha virt. eigenvalues --    3.35291   3.39986   3.43954   3.44823   3.47578
 Alpha virt. eigenvalues --    3.48058   3.52042   3.54164   3.55802   3.57569
 Alpha virt. eigenvalues --    4.31891   4.33656   4.40297   4.45423   4.49014
 Alpha virt. eigenvalues --    4.53582   4.62556   4.77640   4.87784   4.94208
 Alpha virt. eigenvalues --    5.00010
          Condensed to atoms (all electrons):
              1          2          3          4          5          6
     1  C    5.549412  -0.220366  -0.534255  -0.424729   0.454799   0.206445
     2  C   -0.220366   6.837047  -0.310548   0.597897  -0.295088  -0.848437
     3  C   -0.534255  -0.310548   6.739656   0.304996  -1.180115   0.200565
     4  C   -0.424729   0.597897   0.304996   6.565972  -0.569245  -0.698006
     5  C    0.454799  -0.295088  -1.180115  -0.569245   7.093616   0.052922
     6  C    0.206445  -0.848437   0.200565  -0.698006   0.052922   6.705584
     7  O   -0.030461   0.087015   0.270358  -0.070787  -0.061640  -0.057213
     8  O    0.152589  -0.132574   0.357662   0.052877  -0.240574  -0.027812
     9  O    0.035939  -0.137322  -0.041615  -0.092704   0.053858   0.190769
    10  O   -0.001973  -0.043730   0.033147   0.175050  -0.066668  -0.042054
    11  O    0.018765  -0.025725  -0.035284  -0.158912   0.142429   0.067771
    12  H    0.486307  -0.184229   0.004953  -0.058785   0.028859   0.085166
    13  H    0.405091  -0.003144  -0.021566   0.005006   0.005194  -0.015261
    14  H   -0.002717   0.348089   0.010663   0.007957  -0.000033  -0.026241
    15  H    0.007463   0.040189   0.326457   0.023127   0.005504  -0.029759
    16  H   -0.000638  -0.029142   0.031620   0.333856  -0.013498   0.001917
    17  H    0.008090  -0.014153  -0.036622  -0.046570   0.369880   0.006182
    18  H    0.015298  -0.024674  -0.035149  -0.041177   0.044978   0.342422
    19  H   -0.004214   0.006468   0.006656  -0.023768  -0.014248   0.037677
    20  H    0.004445  -0.012656   0.004644   0.001699  -0.039954   0.022239
    21  H   -0.002520   0.004497  -0.041520   0.015469   0.037399  -0.005978
              7          8          9         10         11         12
     1  C   -0.030461   0.152589   0.035939  -0.001973   0.018765   0.486307
     2  C    0.087015  -0.132574  -0.137322  -0.043730  -0.025725  -0.184229
     3  C    0.270358   0.357662  -0.041615   0.033147  -0.035284   0.004953
     4  C   -0.070787   0.052877  -0.092704   0.175050  -0.158912  -0.058785
     5  C   -0.061640  -0.240574   0.053858  -0.066668   0.142429   0.028859
     6  C   -0.057213  -0.027812   0.190769  -0.042054   0.067771   0.085166
     7  O    8.350212  -0.051294   0.020814   0.003489   0.005106   0.010616
     8  O   -0.051294   8.425104   0.001563   0.024337   0.019955  -0.045745
     9  O    0.020814   0.001563   8.377443   0.007033   0.000041   0.000196
    10  O    0.003489   0.024337   0.007033   8.343400  -0.022096  -0.002736
    11  O    0.005106   0.019955   0.000041  -0.022096   8.400389   0.000037
    12  H    0.010616  -0.045745   0.000196  -0.002736   0.000037   0.536192
    13  H   -0.000735  -0.049117  -0.000111   0.000758   0.000059  -0.039818
    14  H   -0.036858   0.006471   0.003948  -0.000553   0.000044   0.002405
    15  H   -0.040186  -0.049092   0.000466  -0.000971  -0.009123  -0.000261
    16  H   -0.001696   0.000549  -0.008407  -0.049645   0.003749  -0.000046
    17  H    0.003376   0.009023   0.003783   0.004476  -0.037043  -0.000015
    18  H    0.008666   0.000104  -0.032992  -0.000388  -0.000772   0.000236
    19  H   -0.001082   0.000162   0.241758   0.000317   0.000075  -0.000010
    20  H   -0.000186  -0.002666  -0.000410   0.248721   0.027681   0.000140
    21  H    0.000903  -0.002444   0.000016   0.000865   0.243265   0.000001
             13         14         15         16         17         18
     1  C    0.405091  -0.002717   0.007463  -0.000638   0.008090   0.015298
     2  C   -0.003144   0.348089   0.040189  -0.029142  -0.014153  -0.024674
     3  C   -0.021566   0.010663   0.326457   0.031620  -0.036622  -0.035149
     4  C    0.005006   0.007957   0.023127   0.333856  -0.046570  -0.041177
     5  C    0.005194  -0.000033   0.005504  -0.013498   0.369880   0.044978
     6  C   -0.015261  -0.026241  -0.029759   0.001917   0.006182   0.342422
     7  O   -0.000735  -0.036858  -0.040186  -0.001696   0.003376   0.008666
     8  O   -0.049117   0.006471  -0.049092   0.000549   0.009023   0.000104
     9  O   -0.000111   0.003948   0.000466  -0.008407   0.003783  -0.032992
    10  O    0.000758  -0.000553  -0.000971  -0.049645   0.004476  -0.000388
    11  O    0.000059   0.000044  -0.009123   0.003749  -0.037043  -0.000772
    12  H   -0.039818   0.002405  -0.000261  -0.000046  -0.000015   0.000236
    13  H    0.553719  -0.004086   0.000298   0.000004   0.000015   0.000115
    14  H   -0.004086   0.518207  -0.000028  -0.000140  -0.000009  -0.001643
    15  H    0.000298  -0.000028   0.554737  -0.000165  -0.003658   0.000026
    16  H    0.000004  -0.000140  -0.000165   0.585118  -0.004418  -0.003762
    17  H    0.000015  -0.000009  -0.003658  -0.004418   0.565832  -0.000127
    18  H    0.000115  -0.001643   0.000026  -0.003762  -0.000127   0.565242
    19  H    0.000004   0.000053   0.000000   0.004356   0.000139  -0.007395
    20  H   -0.000015   0.000013  -0.000035  -0.000183   0.000792   0.000147
    21  H    0.000000   0.000000   0.003745  -0.000240  -0.004540   0.000006
             19         20         21
     1  C   -0.004214   0.004445  -0.002520
     2  C    0.006468  -0.012656   0.004497
     3  C    0.006656   0.004644  -0.041520
     4  C   -0.023768   0.001699   0.015469
     5  C   -0.014248  -0.039954   0.037399
     6  C    0.037677   0.022239  -0.005978
     7  O   -0.001082  -0.000186   0.000903
     8  O    0.000162  -0.002666  -0.002444
     9  O    0.241758  -0.000410   0.000016
    10  O    0.000317   0.248721   0.000865
    11  O    0.000075   0.027681   0.243265
    12  H   -0.000010   0.000140   0.000001
    13  H    0.000004  -0.000015   0.000000
    14  H    0.000053   0.000013   0.000000
    15  H    0.000000  -0.000035   0.003745
    16  H    0.004356  -0.000183  -0.000240
    17  H    0.000139   0.000792  -0.004540
    18  H   -0.007395   0.000147   0.000006
    19  H    0.340113  -0.000018   0.000000
    20  H   -0.000018   0.336970  -0.001045
    21  H    0.000000  -0.001045   0.331697
 Mulliken atomic charges:
              1
     1  C   -0.122770
     2  C    0.360586
     3  C   -0.054701
     4  C    0.100778
     5  C    0.191626
     6  C   -0.168900
     7  O   -0.408418
     8  O   -0.449078
     9  O   -0.624067
    10  O   -0.610779
    11  O   -0.640412
    12  H    0.176537
    13  H    0.163592
    14  H    0.174459
    15  H    0.171267
    16  H    0.150813
    17  H    0.175568
    18  H    0.170842
    19  H    0.412956
    20  H    0.409677
    21  H    0.420424
 Sum of Mulliken atomic charges =   0.00000
 Mulliken charges with hydrogens summed into heavy atoms:
              1
     1  C    0.217358
     2  C    0.535045
     3  C    0.116566
     4  C    0.251591
     5  C    0.367194
     6  C    0.001942
     7  O   -0.408418
     8  O   -0.449078
     9  O   -0.211111
    10  O   -0.201102
    11  O   -0.219988
 Sum of Mulliken charges with hydrogens summed into heavy atoms =   0.00000
 Electronic spatial extent (au):  <R**2>=           1374.6165
 Charge=              0.0000 electrons
 Dipole moment (field-independent basis, Debye):
    X=              0.2192    Y=             -0.9732    Z=             -0.6122  Tot=              1.1705
 Quadrupole moment (field-independent basis, Debye-Ang):
   XX=            -61.2707   YY=            -62.1942   ZZ=            -67.5577
   XY=              3.3521   XZ=            -13.0495   YZ=              2.7919
 Traceless Quadrupole moment (field-independent basis, Debye-Ang):
   XX=              2.4035   YY=              1.4800   ZZ=             -3.8835
   XY=              3.3521   XZ=            -13.0495   YZ=              2.7919
 Octapole moment (field-independent basis, Debye-Ang**2):
  XXX=             24.3595  YYY=            -23.4198  ZZZ=             -6.7632  XYY=            -22.7855
  XXY=              3.7968  XXZ=             -0.6141  XZZ=             14.2073  YZZ=              7.0106
  YYZ=             -3.0138  XYZ=             -6.2364
 Hexadecapole moment (field-independent basis, Debye-Ang**3):
 XXXX=           -668.5993 YYYY=           -560.8027 ZZZZ=           -382.0212 XXXY=             20.4106
 XXXZ=            -47.1886 YYYX=             40.4639 YYYZ=             16.3438 ZZZX=            -22.3178
 ZZZY=             15.4861 XXYY=           -205.8836 XXZZ=           -164.4946 YYZZ=           -171.2047
 XXYZ=            -15.4838 YYXZ=             -9.9726 ZZXY=              6.2291
 N-N= 7.333681421885D+02 E-N=-2.897279096370D+03  KE= 6.053550227323D+02

 Test job not archived.
 1\1\GINC-COMPUTE-10-4\SP\RB3LYP\6-31+G(d,p)\C6H10O5\ASAROTTI.IQUIR\15-
 Apr-2019\0\\# B3LYP/6-31+G** test scrf=(pcm,solvent=water,smd,dovacuum
 )\\comment\\0,1\C,0,-0.491266,1.576081,1.094845\C,0,-1.360211,0.765452
 ,0.11952\C,0,0.629849,0.997894,-0.825037\C,0,0.176817,-1.260697,0.2643
 95\C,0,1.001485,-0.496745,-0.797107\C,0,-1.284316,-0.749497,0.335262\O
 ,0,-0.744954,1.096312,-1.142585\O,0,0.793624,1.62229,0.441255\O,0,-2.0
 91306,-1.340515,-0.679467\O,0,0.758824,-1.120373,1.555254\O,0,2.36907,
 -0.723607,-0.466295\H,0,-0.386636,1.108197,2.074979\H,0,-0.870704,2.59
 7423,1.206157\H,0,-2.400725,1.092171,0.079128\H,0,1.210232,1.548877,-1
 .573181\H,0,0.155006,-2.326381,-0.014721\H,0,0.76528,-0.901658,-1.7903
 23\H,0,-1.670057,-0.98937,1.33677\H,0,-2.149194,-2.291043,-0.490556\H,
 0,1.701461,-0.930087,1.395123\H,0,2.929119,-0.175917,-1.039951\\Versio
 n=EM64L-G09RevC.01\State=1-A\HF=-610.8058049\RMSD=7.171e-09\Dipole=0.0
 862399,-0.3828964,-0.2408544\Quadrupole=1.7869487,1.1003395,-2.8872882
 ,2.492241,-9.7019847,2.0757422\PG=C01 [X(C6H10O5)]\\@


 A SCIENTIST IS SOMEONE WHOSE CURIOSITY SURVIVES
 EDUCATION'S ASSAULTS ON IT.
                          - SIR HERMANN BONDI
 Job cpu time:  0 days  0 hours  5 minutes 36.7 seconds.
 File lengths (MBytes):  RWF=     56 Int=      0 D2E=      0 Chk=      4 Scr=      1
 Normal termination of Gaussian 09 at Mon Apr 15 18:29:17 2019.
