 Entering Gaussian System, Link 0=g09
 Input=/home/asarotti.iquir/SCF3/05_SSR_Levo11_OPTB_energy_b3lyp_smd.gjc
 Output=/home/asarotti.iquir/SCF3/05_SSR_Levo11_OPTB_energy_b3lyp_smd.log
 Initial command:
 /share/apps/Gaussian09/EM64T.SSE4.2-enabled/g09/l1.exe /tmp/Gau-8557.inp -scrdir=/tmp/
 Entering Link 1 = /share/apps/Gaussian09/EM64T.SSE4.2-enabled/g09/l1.exe PID=      8558.
  
 Copyright (c) 1988,1990,1992,1993,1995,1998,2003,2009,2011,
            Gaussian, Inc.  All Rights Reserved.
  
 This is part of the Gaussian(R) 09 program.  It is based on
 the Gaussian(R) 03 system (copyright 2003, Gaussian, Inc.),
 the Gaussian(R) 98 system (copyright 1998, Gaussian, Inc.),
 the Gaussian(R) 94 system (copyright 1995, Gaussian, Inc.),
 the Gaussian 92(TM) system (copyright 1992, Gaussian, Inc.),
 the Gaussian 90(TM) system (copyright 1990, Gaussian, Inc.),
 the Gaussian 88(TM) system (copyright 1988, Gaussian, Inc.),
 the Gaussian 86(TM) system (copyright 1986, Carnegie Mellon
 University), and the Gaussian 82(TM) system (copyright 1983,
 Carnegie Mellon University). Gaussian is a federally registered
 trademark of Gaussian, Inc.
  
 This software contains proprietary and confidential information,
 including trade secrets, belonging to Gaussian, Inc.
  
 This software is provided under written license and may be
 used, copied, transmitted, or stored only in accord with that
 written license.
  
 The following legend is applicable only to US Government
 contracts under FAR:
  
                    RESTRICTED RIGHTS LEGEND
  
 Use, reproduction and disclosure by the US Government is
 subject to restrictions as set forth in subparagraphs (a)
 and (c) of the Commercial Computer Software - Restricted
 Rights clause in FAR 52.227-19.
  
 Gaussian, Inc.
 340 Quinnipiac St., Bldg. 40, Wallingford CT 06492
  
  
 ---------------------------------------------------------------
 Warning -- This program may not be used in any manner that
 competes with the business of Gaussian, Inc. or will provide
 assistance to any competitor of Gaussian, Inc.  The licensee
 of this program is prohibited from giving any competitor of
 Gaussian, Inc. access to this program.  By using this program,
 the user acknowledges that Gaussian, Inc. is engaged in the
 business of creating and licensing software in the field of
 computational chemistry and represents and warrants to the
 licensee that it is not a competitor of Gaussian, Inc. and that
 it will not use this program in any manner prohibited above.
 ---------------------------------------------------------------
  

 Cite this work as:
 Gaussian 09, Revision C.01,
 M. J. Frisch, G. W. Trucks, H. B. Schlegel, G. E. Scuseria, 
 M. A. Robb, J. R. Cheeseman, G. Scalmani, V. Barone, B. Mennucci, 
 G. A. Petersson, H. Nakatsuji, M. Caricato, X. Li, H. P. Hratchian, 
 A. F. Izmaylov, J. Bloino, G. Zheng, J. L. Sonnenberg, M. Hada, 
 M. Ehara, K. Toyota, R. Fukuda, J. Hasegawa, M. Ishida, T. Nakajima, 
 Y. Honda, O. Kitao, H. Nakai, T. Vreven, J. A. Montgomery, Jr., 
 J. E. Peralta, F. Ogliaro, M. Bearpark, J. J. Heyd, E. Brothers, 
 K. N. Kudin, V. N. Staroverov, T. Keith, R. Kobayashi, J. Normand, 
 K. Raghavachari, A. Rendell, J. C. Burant, S. S. Iyengar, J. Tomasi, 
 M. Cossi, N. Rega, J. M. Millam, M. Klene, J. E. Knox, J. B. Cross, 
 V. Bakken, C. Adamo, J. Jaramillo, R. Gomperts, R. E. Stratmann, 
 O. Yazyev, A. J. Austin, R. Cammi, C. Pomelli, J. W. Ochterski, 
 R. L. Martin, K. Morokuma, V. G. Zakrzewski, G. A. Voth, 
 P. Salvador, J. J. Dannenberg, S. Dapprich, A. D. Daniels, 
 O. Farkas, J. B. Foresman, J. V. Ortiz, J. Cioslowski, 
 and D. J. Fox, Gaussian, Inc., Wallingford CT, 2010.
 
 ******************************************
 Gaussian 09:  EM64L-G09RevC.01 23-Sep-2011
                15-Apr-2019 
 ******************************************
 %nprocshared=4
 Will use up to    4 processors via shared memory.
 -----------------------------------------------------------
 # B3LYP/6-31+G** test scrf=(pcm,solvent=water,smd,dovacuum)
 -----------------------------------------------------------
 1/38=1/1;
 2/12=2,17=6,18=5,40=1/2;
 3/5=1,6=6,7=111,11=2,16=1,25=1,30=1,70=32101,72=1,74=-5/1,2,3;
 4//1;
 5/5=2,38=5,53=1/2;
 6/7=2,8=2,9=2,10=2,28=1/1;
 99/5=1,9=1/99;
 -------
 comment
 -------
 Charge =  0 Multiplicity = 1
 Symbolic Z-Matrix:
 6                    -0.5009    1.52727   1.15104 
 6                    -1.37607   0.72516   0.17291 
 6                     0.57631   1.05203  -0.82451 
 6                     0.2297   -1.25165   0.20282 
 6                     1.01202  -0.4251   -0.84744 
 6                    -1.24829  -0.7936    0.33093 
 8                    -0.8127    1.11733  -1.09364 
 8                     0.7577    1.64408   0.45868 
 8                    -2.05344  -1.37248  -0.6932 
 8                     0.92487  -1.09363   1.44843 
 8                     2.40756  -0.56897  -0.6572 
 1                    -0.34858   1.02614   2.10888 
 1                    -0.91171   2.52903   1.31692 
 1                    -2.42695   1.02018   0.17825 
 1                     1.11958   1.63948  -1.57026 
 1                     0.24606  -2.30801  -0.09418 
 1                     0.77205  -0.80724  -1.84555 
 1                    -1.61242  -1.08284   1.32806 
 1                    -2.10324  -2.32697  -0.52312 
 1                     0.80003  -1.90123   1.97003 
 1                     2.51666  -0.6039    0.31197 
 
                          Input orientation:                          
 ---------------------------------------------------------------------
 Center     Atomic      Atomic             Coordinates (Angstroms)
 Number     Number       Type             X           Y           Z
 ---------------------------------------------------------------------
      1          6           0       -0.500895    1.527269    1.151036
      2          6           0       -1.376068    0.725155    0.172914
      3          6           0        0.576310    1.052033   -0.824505
      4          6           0        0.229697   -1.251647    0.202821
      5          6           0        1.012023   -0.425100   -0.847444
      6          6           0       -1.248293   -0.793604    0.330927
      7          8           0       -0.812701    1.117335   -1.093638
      8          8           0        0.757702    1.644077    0.458676
      9          8           0       -2.053442   -1.372476   -0.693203
     10          8           0        0.924865   -1.093629    1.448427
     11          8           0        2.407559   -0.568968   -0.657200
     12          1           0       -0.348582    1.026139    2.108878
     13          1           0       -0.911706    2.529034    1.316922
     14          1           0       -2.426948    1.020183    0.178247
     15          1           0        1.119579    1.639483   -1.570258
     16          1           0        0.246061   -2.308005   -0.094180
     17          1           0        0.772052   -0.807236   -1.845549
     18          1           0       -1.612419   -1.082841    1.328060
     19          1           0       -2.103235   -2.326974   -0.523121
     20          1           0        0.800028   -1.901234    1.970032
     21          1           0        2.516664   -0.603904    0.311969
 ---------------------------------------------------------------------
                    Distance matrix (angstroms):
                    1          2          3          4          5
     1  C    0.000000
     2  C    1.538193   0.000000
     3  C    2.299779   2.216636   0.000000
     4  C    3.025764   2.546983   2.546072   0.000000
     5  C    3.177198   2.840281   1.540225   1.548635   0.000000
     6  C    2.572476   1.532294   2.840876   1.552633   2.575535
     7  O    2.303005   1.440605   1.416350   2.894732   2.401944
     8  O    1.441205   2.340737   1.424771   2.954567   2.460106
     9  O    3.770960   2.368343   3.579257   2.455643   3.212225
    10  O    2.998389   3.198312   3.145088   1.435187   2.392812
    11  O    4.015350   4.084076   2.451348   2.439010   1.415772
    12  H    1.091692   2.212301   3.075846   3.025850   3.563310
    13  H    1.095362   2.185947   2.996904   4.103361   4.136680
    14  H    2.216559   1.091521   3.166399   3.495651   3.868773
    15  H    3.169222   3.178506   1.093794   3.506327   2.190098
    16  H    4.100955   3.450029   3.454315   1.097438   2.167818
    17  H    4.006224   3.322173   2.130194   2.165057   1.095366
    18  H    2.842446   2.158489   3.739219   2.165190   3.471763
    19  H    4.497275   3.213834   4.323018   2.669437   3.664307
    20  H    3.757364   3.855249   4.072011   1.967302   3.187802
    21  H    3.788350   4.115713   2.792611   2.379433   1.907919
                    6          7          8          9         10
     6  C    0.000000
     7  O    2.422976   0.000000
     8  O    3.159529   2.270088   0.000000
     9  O    1.425553   2.810506   4.281232   0.000000
    10  O    2.461999   3.790724   2.915919   3.678946   0.000000
    11  O    3.793693   3.661171   2.977377   4.532930   2.628177
    12  H    2.698528   3.237257   2.080596   4.063442   2.559547
    13  H    3.482155   2.795263   2.075249   4.534969   4.063739
    14  H    2.168493   2.057407   3.257281   2.573664   4.161275
    15  H    3.891174   2.057550   2.060958   4.461971   4.076797
    16  H    2.169613   3.721941   4.023230   2.553773   2.077287
    17  H    2.969685   2.603994   3.364312   3.103355   3.309932
    18  H    1.100236   3.368226   3.716098   2.088993   2.540160
    19  H    1.952318   3.722127   4.991806   0.970811   3.818053
    20  H    2.847653   4.593335   3.854247   3.938870   0.969475
    21  H    3.769781   4.002882   2.858127   4.742040   2.016232
                   11         12         13         14         15
    11  O    0.000000
    12  H    4.218041   0.000000
    13  H    4.950989   1.789692   0.000000
    14  H    5.157115   2.836719   2.422637   0.000000
    15  H    2.714742   4.008457   3.640498   4.002331   0.000000
    16  H    2.830780   4.040245   5.169969   4.277386   4.304010
    17  H    2.035639   4.500509   4.895606   4.203429   2.486563
    18  H    4.512820   2.579682   3.679234   2.531450   4.824428
    19  H    4.843121   4.609728   5.327881   3.435137   5.216877
    20  H    3.355806   3.147713   4.794149   4.707286   5.017215
    21  H    0.975916   3.754405   4.751731   5.205270   3.244597
                   16         17         18         19         20
    16  H    0.000000
    17  H    2.365643   0.000000
    18  H    2.641541   3.979127   0.000000
    19  H    2.388209   3.510797   2.283777   0.000000
    20  H    2.175618   3.969417   2.627127   3.850455   0.000000
    21  H    2.867849   2.782067   4.279153   5.000981   2.716446
                   21
    21  H    0.000000
 Stoichiometry    C6H10O5
 Framework group  C1[X(C6H10O5)]
 Deg. of freedom    57
 Full point group                 C1      NOp   1
 Largest Abelian subgroup         C1      NOp   1
 Largest concise Abelian subgroup C1      NOp   1
                         Standard orientation:                         
 ---------------------------------------------------------------------
 Center     Atomic      Atomic             Coordinates (Angstroms)
 Number     Number       Type             X           Y           Z
 ---------------------------------------------------------------------
      1          6           0       -0.500895    1.527269    1.151036
      2          6           0       -1.376068    0.725155    0.172914
      3          6           0        0.576310    1.052033   -0.824505
      4          6           0        0.229697   -1.251647    0.202821
      5          6           0        1.012023   -0.425100   -0.847444
      6          6           0       -1.248293   -0.793604    0.330927
      7          8           0       -0.812701    1.117335   -1.093638
      8          8           0        0.757702    1.644077    0.458676
      9          8           0       -2.053442   -1.372476   -0.693203
     10          8           0        0.924865   -1.093629    1.448427
     11          8           0        2.407559   -0.568967   -0.657200
     12          1           0       -0.348582    1.026139    2.108878
     13          1           0       -0.911707    2.529034    1.316922
     14          1           0       -2.426948    1.020183    0.178247
     15          1           0        1.119579    1.639483   -1.570258
     16          1           0        0.246061   -2.308005   -0.094180
     17          1           0        0.772052   -0.807236   -1.845549
     18          1           0       -1.612419   -1.082841    1.328060
     19          1           0       -2.103235   -2.326974   -0.523121
     20          1           0        0.800028   -1.901234    1.970032
     21          1           0        2.516664   -0.603903    0.311969
 ---------------------------------------------------------------------
 Rotational constants (GHZ):      1.4640686      1.2586713      1.0115826
 Standard basis: 6-31+G(d,p) (6D, 7F)
 There are   259 symmetry adapted basis functions of A   symmetry.
 Integral buffers will be    131072 words long.
 Raffenetti 2 integral format.
 Two-electron integral symmetry is turned on.
   259 basis functions,   422 primitive gaussians,   259 cartesian basis functions
    43 alpha electrons       43 beta electrons
       nuclear repulsion energy       732.6127795241 Hartrees.
 NAtoms=   21 NActive=   21 NUniq=   21 SFac= 1.00D+00 NAtFMM=   60 NAOKFM=F Big=F
 ------------------------------------------------------------------------------
 Polarizable Continuum Model (PCM)
 =================================
 Model                : C-PCM.
 Atomic radii         : SMD-Coulomb.
 Polarization charges : Total charges.
 Charge compensation  : None.
 Solution method      : Matrix inversion.
 Cavity type          : VdW (van der Waals Surface) (Alpha=1.000).
 Cavity algorithm     : GePol (No added spheres)
                        Default sphere list used, NSphG=   21.
                        Lebedev-Laikov grids with approx.  5.0 points / Ang**2.
                        Smoothing algorithm: Karplus/York (Gamma=1.0000).
                        Polarization charges: spherical gaussians, with
                                              point-specific exponents (IZeta= 3).
                        Self-potential: point-specific (ISelfS= 7).
                        Self-field    : sphere-specific E.n sum rule (ISelfD= 2).
 Solvent              : Water, Eps=  78.355300 Eps(inf)=   1.777849
 ------------------------------------------------------------------------------
 ------------------------------------------------------------------------------
 Atomic radii for non-electrostatic terms: SMD-CDS.
 ------------------------------------------------------------------------------
 Nuclear repulsion after PCM non-electrostatic terms =      732.6179746985 Hartrees.
 One-electron integrals computed using PRISM.
 NBasis=   259 RedAO= T  NBF=   259
 NBsUse=   259 1.00D-06 NBFU=   259
 Harris functional with IExCor=  402 diagonalized for initial guess.
 ExpMin= 4.38D-02 ExpMax= 5.48D+03 ExpMxC= 8.25D+02 IAcc=2 IRadAn=         4 AccDes= 0.00D+00
 HarFok:  IExCor=  402 AccDes= 0.00D+00 IRadAn=         4 IDoV= 1
 ScaDFX=  1.000000  1.000000  1.000000  1.000000
 FoFCou: FMM=F IPFlag=           0 FMFlag=      100000 FMFlg1=           0
         NFxFlg=           0 DoJE=T BraDBF=F KetDBF=T FulRan=T
         Omega=  0.000000  0.000000  1.000000  0.000000  0.000000 ICntrl=     500 IOpCl=  0
         NMat0=    1 NMatS0=    1 NMatT0=    0 NMatD0=    1 NMtDS0=    0 NMtDT0=    0
         I1Cent=           4 NGrid=           0.
 Petite list used in FoFCou.
 Initial guess orbital symmetries:
       Occupied  (A) (A) (A) (A) (A) (A) (A) (A) (A) (A) (A) (A)
                 (A) (A) (A) (A) (A) (A) (A) (A) (A) (A) (A) (A)
                 (A) (A) (A) (A) (A) (A) (A) (A) (A) (A) (A) (A)
                 (A) (A) (A) (A) (A) (A) (A)
       Virtual   (A) (A) (A) (A) (A) (A) (A) (A) (A) (A) (A) (A)
                 (A) (A) (A) (A) (A) (A) (A) (A) (A) (A) (A) (A)
                 (A) (A) (A) (A) (A) (A) (A) (A) (A) (A) (A) (A)
                 (A) (A) (A) (A) (A) (A) (A) (A) (A) (A) (A) (A)
                 (A) (A) (A) (A) (A) (A) (A) (A) (A) (A) (A) (A)
                 (A) (A) (A) (A) (A) (A) (A) (A) (A) (A) (A) (A)
                 (A) (A) (A) (A) (A) (A) (A) (A) (A) (A) (A) (A)
                 (A) (A) (A) (A) (A) (A) (A) (A) (A) (A) (A) (A)
                 (A) (A) (A) (A) (A) (A) (A) (A) (A) (A) (A) (A)
                 (A) (A) (A) (A) (A) (A) (A) (A) (A) (A) (A) (A)
                 (A) (A) (A) (A) (A) (A) (A) (A) (A) (A) (A) (A)
                 (A) (A) (A) (A) (A) (A) (A) (A) (A) (A) (A) (A)
                 (A) (A) (A) (A) (A) (A) (A) (A) (A) (A) (A) (A)
                 (A) (A) (A) (A) (A) (A) (A) (A) (A) (A) (A) (A)
                 (A) (A) (A) (A) (A) (A) (A) (A) (A) (A) (A) (A)
                 (A) (A) (A) (A) (A) (A) (A) (A) (A) (A) (A) (A)
                 (A) (A) (A) (A) (A) (A) (A) (A) (A) (A) (A) (A)
                 (A) (A) (A) (A) (A) (A) (A) (A) (A) (A) (A) (A)
 The electronic state of the initial guess is 1-A.
 Requested convergence on RMS density matrix=1.00D-08 within 128 cycles.
 Requested convergence on MAX density matrix=1.00D-06.
 Requested convergence on             energy=1.00D-06.
 No special actions if energy rises.
 Error on total polarization charges =  0.05643
 SCF Done:  E(RB3LYP) =  -610.807405926     A.U. after   12 cycles
             Convg  =    0.7652D-08             -V/T =  2.0090
 SMD-CDS (non-electrostatic) energy       (kcal/mol) =       3.26
 (included in total energy above)

 **********************************************************************

            Population analysis using the SCF density.

 **********************************************************************

 Orbital symmetries:
       Occupied  (A) (A) (A) (A) (A) (A) (A) (A) (A) (A) (A) (A)
                 (A) (A) (A) (A) (A) (A) (A) (A) (A) (A) (A) (A)
                 (A) (A) (A) (A) (A) (A) (A) (A) (A) (A) (A) (A)
                 (A) (A) (A) (A) (A) (A) (A)
       Virtual   (A) (A) (A) (A) (A) (A) (A) (A) (A) (A) (A) (A)
                 (A) (A) (A) (A) (A) (A) (A) (A) (A) (A) (A) (A)
                 (A) (A) (A) (A) (A) (A) (A) (A) (A) (A) (A) (A)
                 (A) (A) (A) (A) (A) (A) (A) (A) (A) (A) (A) (A)
                 (A) (A) (A) (A) (A) (A) (A) (A) (A) (A) (A) (A)
                 (A) (A) (A) (A) (A) (A) (A) (A) (A) (A) (A) (A)
                 (A) (A) (A) (A) (A) (A) (A) (A) (A) (A) (A) (A)
                 (A) (A) (A) (A) (A) (A) (A) (A) (A) (A) (A) (A)
                 (A) (A) (A) (A) (A) (A) (A) (A) (A) (A) (A) (A)
                 (A) (A) (A) (A) (A) (A) (A) (A) (A) (A) (A) (A)
                 (A) (A) (A) (A) (A) (A) (A) (A) (A) (A) (A) (A)
                 (A) (A) (A) (A) (A) (A) (A) (A) (A) (A) (A) (A)
                 (A) (A) (A) (A) (A) (A) (A) (A) (A) (A) (A) (A)
                 (A) (A) (A) (A) (A) (A) (A) (A) (A) (A) (A) (A)
                 (A) (A) (A) (A) (A) (A) (A) (A) (A) (A) (A) (A)
                 (A) (A) (A) (A) (A) (A) (A) (A) (A) (A) (A) (A)
                 (A) (A) (A) (A) (A) (A) (A) (A) (A) (A) (A) (A)
                 (A) (A) (A) (A) (A) (A) (A) (A) (A) (A) (A) (A)
 The electronic state is 1-A.
 Alpha  occ. eigenvalues --  -19.18159 -19.17324 -19.17254 -19.17017 -19.16740
 Alpha  occ. eigenvalues --  -10.28936 -10.24928 -10.24919 -10.24772 -10.24323
 Alpha  occ. eigenvalues --  -10.23784  -1.10990  -1.05273  -1.03910  -1.02304
 Alpha  occ. eigenvalues --   -1.00899  -0.79260  -0.77662  -0.67705  -0.65945
 Alpha  occ. eigenvalues --   -0.61931  -0.58913  -0.55401  -0.53444  -0.52484
 Alpha  occ. eigenvalues --   -0.50034  -0.48075  -0.46658  -0.45497  -0.44315
 Alpha  occ. eigenvalues --   -0.42291  -0.41661  -0.40576  -0.39220  -0.36292
 Alpha  occ. eigenvalues --   -0.35758  -0.35672  -0.34615  -0.31937  -0.31266
 Alpha  occ. eigenvalues --   -0.28787  -0.27568  -0.25833
 Alpha virt. eigenvalues --    0.00413   0.01477   0.02199   0.02776   0.04372
 Alpha virt. eigenvalues --    0.04791   0.05164   0.05506   0.06204   0.08099
 Alpha virt. eigenvalues --    0.08869   0.09097   0.10227   0.10926   0.11824
 Alpha virt. eigenvalues --    0.12628   0.12852   0.13617   0.14191   0.14538
 Alpha virt. eigenvalues --    0.14970   0.15805   0.16303   0.17031   0.17476
 Alpha virt. eigenvalues --    0.18786   0.19030   0.19379   0.20306   0.21014
 Alpha virt. eigenvalues --    0.21472   0.21704   0.23249   0.23670   0.23761
 Alpha virt. eigenvalues --    0.24800   0.24841   0.25435   0.25834   0.27140
 Alpha virt. eigenvalues --    0.27939   0.28326   0.29000   0.29291   0.30063
 Alpha virt. eigenvalues --    0.30509   0.31497   0.31934   0.32930   0.33248
 Alpha virt. eigenvalues --    0.33666   0.34134   0.35561   0.35879   0.36624
 Alpha virt. eigenvalues --    0.37508   0.38125   0.38459   0.39242   0.39481
 Alpha virt. eigenvalues --    0.40966   0.41607   0.43840   0.45626   0.47460
 Alpha virt. eigenvalues --    0.50407   0.63308   0.66206   0.67186   0.67790
 Alpha virt. eigenvalues --    0.69699   0.70883   0.73696   0.75206   0.77495
 Alpha virt. eigenvalues --    0.79071   0.80676   0.81367   0.82843   0.84595
 Alpha virt. eigenvalues --    0.88443   0.89684   0.95085   0.96369   0.97817
 Alpha virt. eigenvalues --    0.99524   1.02751   1.04329   1.04901   1.07665
 Alpha virt. eigenvalues --    1.09168   1.09466   1.10293   1.10921   1.12498
 Alpha virt. eigenvalues --    1.16771   1.20075   1.21179   1.24684   1.25773
 Alpha virt. eigenvalues --    1.26781   1.28723   1.29478   1.29907   1.32752
 Alpha virt. eigenvalues --    1.34405   1.35368   1.36589   1.38548   1.41831
 Alpha virt. eigenvalues --    1.43042   1.44396   1.47142   1.48773   1.50384
 Alpha virt. eigenvalues --    1.52430   1.55812   1.56750   1.57984   1.59938
 Alpha virt. eigenvalues --    1.62469   1.63544   1.64534   1.67434   1.67613
 Alpha virt. eigenvalues --    1.70558   1.72186   1.73830   1.76660   1.77459
 Alpha virt. eigenvalues --    1.78968   1.82763   1.84748   1.87378   1.88793
 Alpha virt. eigenvalues --    1.90039   1.93147   1.94179   1.98193   1.98272
 Alpha virt. eigenvalues --    2.00334   2.03137   2.03268   2.07524   2.08248
 Alpha virt. eigenvalues --    2.10284   2.11396   2.13602   2.16266   2.16745
 Alpha virt. eigenvalues --    2.18829   2.20618   2.23506   2.24162   2.28386
 Alpha virt. eigenvalues --    2.31573   2.33394   2.37682   2.40429   2.42543
 Alpha virt. eigenvalues --    2.44791   2.48481   2.48727   2.50452   2.52296
 Alpha virt. eigenvalues --    2.53784   2.57999   2.60160   2.60562   2.63305
 Alpha virt. eigenvalues --    2.64920   2.67011   2.67302   2.68738   2.69563
 Alpha virt. eigenvalues --    2.74519   2.74830   2.77124   2.78570   2.79995
 Alpha virt. eigenvalues --    2.80449   2.84360   2.85568   2.88508   2.89200
 Alpha virt. eigenvalues --    2.93562   2.94277   2.98054   2.99991   3.00953
 Alpha virt. eigenvalues --    3.02834   3.04725   3.09687   3.13781   3.22257
 Alpha virt. eigenvalues --    3.35038   3.40113   3.45642   3.46396   3.47939
 Alpha virt. eigenvalues --    3.48281   3.51899   3.54758   3.55950   3.59158
 Alpha virt. eigenvalues --    4.29323   4.32730   4.40710   4.46509   4.47670
 Alpha virt. eigenvalues --    4.54431   4.62631   4.77589   4.88003   4.93746
 Alpha virt. eigenvalues --    4.99802
          Condensed to atoms (all electrons):
              1          2          3          4          5          6
     1  C    5.586657  -0.316094  -0.521311  -0.475760   0.473467   0.264434
     2  C   -0.316094   7.034979  -0.329609   0.923595  -0.453306  -1.062369
     3  C   -0.521311  -0.329609   7.071805   0.249718  -1.515559   0.411389
     4  C   -0.475760   0.923595   0.249718   6.878768  -0.678383  -1.040566
     5  C    0.473467  -0.453306  -1.515559  -0.678383   7.601670  -0.062311
     6  C    0.264434  -1.062369   0.411389  -1.040566  -0.062311   7.050679
     7  O   -0.020966   0.080718   0.233019  -0.076027  -0.026358  -0.072590
     8  O    0.141055  -0.118915   0.310107   0.099056  -0.206649  -0.042572
     9  O    0.031470  -0.133506  -0.041458  -0.054493   0.028418   0.187441
    10  O    0.037934  -0.115970   0.031173  -0.022514  -0.109450   0.128665
    11  O    0.012309  -0.010392  -0.150177  -0.151797   0.318771   0.043956
    12  H    0.488378  -0.189117   0.008025  -0.068933   0.030753   0.089171
    13  H    0.404697  -0.000983  -0.024852   0.006563   0.006337  -0.015609
    14  H    0.002760   0.334010   0.012803   0.001073   0.005083  -0.020623
    15  H    0.003828   0.045329   0.350174   0.038437  -0.035760  -0.033026
    16  H   -0.002029  -0.019048   0.019239   0.345776  -0.044414   0.029549
    17  H    0.011871  -0.021448  -0.087432  -0.096808   0.497216   0.016764
    18  H    0.013169  -0.022120  -0.033272  -0.033473   0.042852   0.337647
    19  H   -0.004369   0.011186   0.004675  -0.018167  -0.016497   0.030821
    20  H   -0.008519   0.026608  -0.006206   0.072800   0.004575  -0.069751
    21  H    0.006636  -0.013485  -0.022266  -0.073273   0.054918   0.019269
              7          8          9         10         11         12
     1  C   -0.020966   0.141055   0.031470   0.037934   0.012309   0.488378
     2  C    0.080718  -0.118915  -0.133506  -0.115970  -0.010392  -0.189117
     3  C    0.233019   0.310107  -0.041458   0.031173  -0.150177   0.008025
     4  C   -0.076027   0.099056  -0.054493  -0.022514  -0.151797  -0.068933
     5  C   -0.026358  -0.206649   0.028418  -0.109450   0.318771   0.030753
     6  C   -0.072590  -0.042572   0.187441   0.128665   0.043956   0.089171
     7  O    8.357758  -0.049062   0.021531   0.008580   0.005571   0.010537
     8  O   -0.049062   8.433859  -0.000171   0.000593   0.018670  -0.043982
     9  O    0.021531  -0.000171   8.374310   0.003288   0.000748   0.000271
    10  O    0.008580   0.000593   0.003288   8.501101  -0.006686   0.000801
    11  O    0.005571   0.018670   0.000748  -0.006686   8.316091  -0.000004
    12  H    0.010537  -0.043982   0.000271   0.000801  -0.000004   0.537689
    13  H   -0.000474  -0.049792  -0.000130   0.000649   0.000011  -0.040028
    14  H   -0.036146   0.007107   0.004245  -0.000331  -0.000007   0.002430
    15  H   -0.038732  -0.050428   0.000482  -0.000635   0.001724  -0.000270
    16  H   -0.001376  -0.000583  -0.008762  -0.034990   0.007677  -0.000023
    17  H    0.003492   0.009412   0.002091   0.007339  -0.060200  -0.000015
    18  H    0.009326  -0.000540  -0.034412  -0.002574  -0.000633   0.000132
    19  H   -0.000988   0.000169   0.242810   0.000045   0.000083  -0.000011
    20  H   -0.000209   0.001600   0.000264   0.231164  -0.001699  -0.000400
    21  H    0.000023   0.002025  -0.000117   0.028788   0.250827   0.000002
             13         14         15         16         17         18
     1  C    0.404697   0.002760   0.003828  -0.002029   0.011871   0.013169
     2  C   -0.000983   0.334010   0.045329  -0.019048  -0.021448  -0.022120
     3  C   -0.024852   0.012803   0.350174   0.019239  -0.087432  -0.033272
     4  C    0.006563   0.001073   0.038437   0.345776  -0.096808  -0.033473
     5  C    0.006337   0.005083  -0.035760  -0.044414   0.497216   0.042852
     6  C   -0.015609  -0.020623  -0.033026   0.029549   0.016764   0.337647
     7  O   -0.000474  -0.036146  -0.038732  -0.001376   0.003492   0.009326
     8  O   -0.049792   0.007107  -0.050428  -0.000583   0.009412  -0.000540
     9  O   -0.000130   0.004245   0.000482  -0.008762   0.002091  -0.034412
    10  O    0.000649  -0.000331  -0.000635  -0.034990   0.007339  -0.002574
    11  O    0.000011  -0.000007   0.001724   0.007677  -0.060200  -0.000633
    12  H   -0.040028   0.002430  -0.000270  -0.000023  -0.000015   0.000132
    13  H    0.554048  -0.004238   0.000297   0.000004   0.000014   0.000105
    14  H   -0.004238   0.520515  -0.000046  -0.000142   0.000002  -0.001651
    15  H    0.000297  -0.000046   0.555398  -0.000142  -0.003334   0.000023
    16  H    0.000004  -0.000142  -0.000142   0.557193  -0.005677  -0.003513
    17  H    0.000014   0.000002  -0.003334  -0.005677   0.541322  -0.000110
    18  H    0.000105  -0.001651   0.000023  -0.003513  -0.000110   0.563764
    19  H    0.000004   0.000039   0.000001   0.003681   0.000151  -0.007374
    20  H    0.000001  -0.000004   0.000009  -0.009850  -0.000162   0.001718
    21  H    0.000003   0.000001  -0.000264  -0.000538   0.006226  -0.000031
             19         20         21
     1  C   -0.004369  -0.008519   0.006636
     2  C    0.011186   0.026608  -0.013485
     3  C    0.004675  -0.006206  -0.022266
     4  C   -0.018167   0.072800  -0.073273
     5  C   -0.016497   0.004575   0.054918
     6  C    0.030821  -0.069751   0.019269
     7  O   -0.000988  -0.000209   0.000023
     8  O    0.000169   0.001600   0.002025
     9  O    0.242810   0.000264  -0.000117
    10  O    0.000045   0.231164   0.028788
    11  O    0.000083  -0.001699   0.250827
    12  H   -0.000011  -0.000400   0.000002
    13  H    0.000004   0.000001   0.000003
    14  H    0.000039  -0.000004   0.000001
    15  H    0.000001   0.000009  -0.000264
    16  H    0.003681  -0.009850  -0.000538
    17  H    0.000151  -0.000162   0.006226
    18  H   -0.007374   0.001718  -0.000031
    19  H    0.338845   0.000015  -0.000002
    20  H    0.000015   0.321082  -0.000863
    21  H   -0.000002  -0.000863   0.335358
 Mulliken atomic charges:
              1
     1  C   -0.129615
     2  C    0.349936
     3  C    0.030014
     4  C    0.174408
     5  C    0.084627
     6  C   -0.190367
     7  O   -0.407627
     8  O   -0.460958
     9  O   -0.624320
    10  O   -0.686971
    11  O   -0.594843
    12  H    0.174596
    13  H    0.163376
    14  H    0.173121
    15  H    0.166932
    16  H    0.167968
    17  H    0.179284
    18  H    0.170967
    19  H    0.414883
    20  H    0.437827
    21  H    0.406761
 Sum of Mulliken atomic charges =   0.00000
 Mulliken charges with hydrogens summed into heavy atoms:
              1
     1  C    0.208357
     2  C    0.523057
     3  C    0.196946
     4  C    0.342376
     5  C    0.263911
     6  C   -0.019401
     7  O   -0.407627
     8  O   -0.460958
     9  O   -0.209436
    10  O   -0.249144
    11  O   -0.188082
 Sum of Mulliken charges with hydrogens summed into heavy atoms =   0.00000
 Electronic spatial extent (au):  <R**2>=           1377.6532
 Charge=              0.0000 electrons
 Dipole moment (field-independent basis, Debye):
    X=             -3.2634    Y=             -4.9447    Z=              4.5451  Tot=              7.4672
 Quadrupole moment (field-independent basis, Debye-Ang):
   XX=            -74.3501   YY=            -54.2988   ZZ=            -63.7560
   XY=              0.5861   XZ=             -4.7820   YZ=             -4.3881
 Traceless Quadrupole moment (field-independent basis, Debye-Ang):
   XX=            -10.2152   YY=              9.8362   ZZ=              0.3790
   XY=              0.5861   XZ=             -4.7820   YZ=             -4.3881
 Octapole moment (field-independent basis, Debye-Ang**2):
  XXX=            -16.1779  YYY=            -44.5937  ZZZ=             12.9087  XYY=            -16.2998
  XXY=             -0.7660  XXZ=             23.3270  XZZ=              5.0332  YZZ=             -8.5241
  YYZ=             12.6258  XYZ=            -10.8971
 Hexadecapole moment (field-independent basis, Debye-Ang**3):
 XXXX=           -788.9180 YYYY=           -523.8230 ZZZZ=           -349.8548 XXXY=              9.1403
 XXXZ=             29.4757 YYYX=             27.5706 YYYZ=            -19.8065 ZZZX=             -4.2751
 ZZZY=            -23.4692 XXYY=           -201.4861 XXZZ=           -199.7747 YYZZ=           -136.4166
 XXYZ=            -17.1725 YYXZ=              1.0019 ZZXY=             -0.9954
 N-N= 7.326179746985D+02 E-N=-2.895844844401D+03  KE= 6.053501418751D+02

 Test job not archived.
 1\1\GINC-COMPUTE-10-3\SP\RB3LYP\6-31+G(d,p)\C6H10O5\ASAROTTI.IQUIR\15-
 Apr-2019\0\\# B3LYP/6-31+G** test scrf=(pcm,solvent=water,smd,dovacuum
 )\\comment\\0,1\C,0,-0.500895,1.527269,1.151036\C,0,-1.376068,0.725155
 ,0.172914\C,0,0.57631,1.052033,-0.824505\C,0,0.229697,-1.251647,0.2028
 21\C,0,1.012023,-0.4251,-0.847444\C,0,-1.248293,-0.793604,0.330927\O,0
 ,-0.812701,1.117335,-1.093638\O,0,0.757702,1.644077,0.458676\O,0,-2.05
 3442,-1.372476,-0.693203\O,0,0.924865,-1.093629,1.448427\O,0,2.407559,
 -0.568968,-0.6572\H,0,-0.348582,1.026139,2.108878\H,0,-0.911706,2.5290
 34,1.316922\H,0,-2.426948,1.020183,0.178247\H,0,1.119579,1.639483,-1.5
 70258\H,0,0.246061,-2.308005,-0.09418\H,0,0.772052,-0.807236,-1.845549
 \H,0,-1.612419,-1.082841,1.32806\H,0,-2.103235,-2.326974,-0.523121\H,0
 ,0.800028,-1.901234,1.970032\H,0,2.516664,-0.603904,0.311969\\Version=
 EM64L-G09RevC.01\State=1-A\HF=-610.8074059\RMSD=7.652e-09\Dipole=-1.28
 39379,-1.9454105,1.7881773\Quadrupole=-7.5947261,7.3129691,0.281757,0.
 4357799,-3.5553365,-3.2624539\PG=C01 [X(C6H10O5)]\\@


 EVANS BOLDLY PUT 50 ATM. OF ETHYLENE IN A CELL WITH 25 ATM. OF OXYGEN.
 THE APPARATUS SUBSEQUENTLY BLEW UP, BUT LUCKILY NOT BEFORE HE
 OBTAINED THE SPECTRA SHOWN IN FIGURE 8.
 A.J.MERER AND R.S.MULLIKEN, CHEM.REV. 69, 645 (1969)
 Job cpu time:  0 days  0 hours  8 minutes 10.3 seconds.
 File lengths (MBytes):  RWF=     56 Int=      0 D2E=      0 Chk=      4 Scr=      1
 Normal termination of Gaussian 09 at Mon Apr 15 18:41:46 2019.
