 Entering Gaussian System, Link 0=g09
 Input=/home/mmarcarino.iquir/NMR/05_SSR_Levo10_OPTB_nmr.gjc
 Output=/home/mmarcarino.iquir/NMR/05_SSR_Levo10_OPTB_nmr.log
 Initial command:
 /share/apps/Gaussian09/EM64T.SSE4.2-enabled/g09/l1.exe /tmp/Gau-60801.inp -scrdir=/tmp/
 Entering Link 1 = /share/apps/Gaussian09/EM64T.SSE4.2-enabled/g09/l1.exe PID=     60802.
  
 Copyright (c) 1988,1990,1992,1993,1995,1998,2003,2009,2011,
            Gaussian, Inc.  All Rights Reserved.
  
 This is part of the Gaussian(R) 09 program.  It is based on
 the Gaussian(R) 03 system (copyright 2003, Gaussian, Inc.),
 the Gaussian(R) 98 system (copyright 1998, Gaussian, Inc.),
 the Gaussian(R) 94 system (copyright 1995, Gaussian, Inc.),
 the Gaussian 92(TM) system (copyright 1992, Gaussian, Inc.),
 the Gaussian 90(TM) system (copyright 1990, Gaussian, Inc.),
 the Gaussian 88(TM) system (copyright 1988, Gaussian, Inc.),
 the Gaussian 86(TM) system (copyright 1986, Carnegie Mellon
 University), and the Gaussian 82(TM) system (copyright 1983,
 Carnegie Mellon University). Gaussian is a federally registered
 trademark of Gaussian, Inc.
  
 This software contains proprietary and confidential information,
 including trade secrets, belonging to Gaussian, Inc.
  
 This software is provided under written license and may be
 used, copied, transmitted, or stored only in accord with that
 written license.
  
 The following legend is applicable only to US Government
 contracts under FAR:
  
                    RESTRICTED RIGHTS LEGEND
  
 Use, reproduction and disclosure by the US Government is
 subject to restrictions as set forth in subparagraphs (a)
 and (c) of the Commercial Computer Software - Restricted
 Rights clause in FAR 52.227-19.
  
 Gaussian, Inc.
 340 Quinnipiac St., Bldg. 40, Wallingford CT 06492
  
  
 ---------------------------------------------------------------
 Warning -- This program may not be used in any manner that
 competes with the business of Gaussian, Inc. or will provide
 assistance to any competitor of Gaussian, Inc.  The licensee
 of this program is prohibited from giving any competitor of
 Gaussian, Inc. access to this program.  By using this program,
 the user acknowledges that Gaussian, Inc. is engaged in the
 business of creating and licensing software in the field of
 computational chemistry and represents and warrants to the
 licensee that it is not a competitor of Gaussian, Inc. and that
 it will not use this program in any manner prohibited above.
 ---------------------------------------------------------------
  

 Cite this work as:
 Gaussian 09, Revision C.01,
 M. J. Frisch, G. W. Trucks, H. B. Schlegel, G. E. Scuseria, 
 M. A. Robb, J. R. Cheeseman, G. Scalmani, V. Barone, B. Mennucci, 
 G. A. Petersson, H. Nakatsuji, M. Caricato, X. Li, H. P. Hratchian, 
 A. F. Izmaylov, J. Bloino, G. Zheng, J. L. Sonnenberg, M. Hada, 
 M. Ehara, K. Toyota, R. Fukuda, J. Hasegawa, M. Ishida, T. Nakajima, 
 Y. Honda, O. Kitao, H. Nakai, T. Vreven, J. A. Montgomery, Jr., 
 J. E. Peralta, F. Ogliaro, M. Bearpark, J. J. Heyd, E. Brothers, 
 K. N. Kudin, V. N. Staroverov, T. Keith, R. Kobayashi, J. Normand, 
 K. Raghavachari, A. Rendell, J. C. Burant, S. S. Iyengar, J. Tomasi, 
 M. Cossi, N. Rega, J. M. Millam, M. Klene, J. E. Knox, J. B. Cross, 
 V. Bakken, C. Adamo, J. Jaramillo, R. Gomperts, R. E. Stratmann, 
 O. Yazyev, A. J. Austin, R. Cammi, C. Pomelli, J. W. Ochterski, 
 R. L. Martin, K. Morokuma, V. G. Zakrzewski, G. A. Voth, 
 P. Salvador, J. J. Dannenberg, S. Dapprich, A. D. Daniels, 
 O. Farkas, J. B. Foresman, J. V. Ortiz, J. Cioslowski, 
 and D. J. Fox, Gaussian, Inc., Wallingford CT, 2010.
 
 ******************************************
 Gaussian 09:  EM64L-G09RevC.01 23-Sep-2011
                12-Apr-2019 
 ******************************************
 %nprocshared=4
 Will use up to    4 processors via shared memory.
 ------------------------------------------------
 # mpw1pw91/6-31+g** nmr scrf=(pcm,solvent=water)
 ------------------------------------------------
 1/38=1/1;
 2/12=2,17=6,18=5,40=1/2;
 3/5=1,6=6,7=111,11=2,16=1,25=1,30=1,70=2201,72=1,74=-7/1,2,8,3;
 4//1;
 5/5=2,38=5,53=1/2;
 8/6=1,10=90,11=11/1;
 10/13=100,45=16/2;
 6/7=2,8=2,9=2,10=2,28=1/1;
 99/9=1/99;
 -------
 comment
 -------
 Charge =  0 Multiplicity = 1
 Symbolic Z-Matrix:
 6                    -0.86157   1.58311   0.93861 
 6                    -1.49761   0.52678   0.03662 
 6                     0.47063   1.01025  -0.87698 
 6                     0.41265  -1.15633   0.37364 
 6                     1.08415  -0.3985   -0.79455 
 6                    -1.12018  -0.92249   0.40605 
 8                    -0.89161   0.8789   -1.22382 
 8                     0.49116   1.65091   0.42491 
 8                    -1.66726  -1.83989  -0.53683 
 8                     1.05347  -0.78504   1.60051 
 8                     2.49246  -0.37344  -0.64055 
 1                    -0.82996   1.32079   1.99895 
 1                    -1.35269   2.55371   0.81741 
 1                    -2.57936   0.63865  -0.06874 
 1                     0.97536   1.652    -1.6034 
 1                     0.57793  -2.23214   0.27177 
 1                     0.85753  -0.89698  -1.74309 
 1                    -1.47518  -1.14176   1.42378 
 1                    -2.63325  -1.74129  -0.52893 
 1                     1.05379   0.19205   1.61993 
 1                     2.65179  -0.45354   0.31824 
 
                          Input orientation:                          
 ---------------------------------------------------------------------
 Center     Atomic      Atomic             Coordinates (Angstroms)
 Number     Number       Type             X           Y           Z
 ---------------------------------------------------------------------
      1          6           0       -0.861572    1.583107    0.938605
      2          6           0       -1.497611    0.526779    0.036622
      3          6           0        0.470627    1.010255   -0.876978
      4          6           0        0.412651   -1.156327    0.373636
      5          6           0        1.084148   -0.398495   -0.794550
      6          6           0       -1.120182   -0.922486    0.406051
      7          8           0       -0.891614    0.878902   -1.223818
      8          8           0        0.491160    1.650905    0.424911
      9          8           0       -1.667263   -1.839892   -0.536829
     10          8           0        1.053470   -0.785037    1.600510
     11          8           0        2.492459   -0.373438   -0.640553
     12          1           0       -0.829957    1.320788    1.998949
     13          1           0       -1.352691    2.553713    0.817414
     14          1           0       -2.579360    0.638648   -0.068738
     15          1           0        0.975357    1.652004   -1.603398
     16          1           0        0.577928   -2.232136    0.271766
     17          1           0        0.857532   -0.896984   -1.743087
     18          1           0       -1.475183   -1.141759    1.423775
     19          1           0       -2.633250   -1.741286   -0.528931
     20          1           0        1.053790    0.192047    1.619932
     21          1           0        2.651785   -0.453539    0.318241
 ---------------------------------------------------------------------
                    Distance matrix (angstroms):
                    1          2          3          4          5
     1  C    0.000000
     2  C    1.527726   0.000000
     3  C    2.323630   2.223145   0.000000
     4  C    3.073651   2.568175   2.502294   0.000000
     5  C    3.273591   2.865739   1.538759   1.545922   0.000000
     6  C    2.574585   1.542498   2.812885   1.550906   2.564192
     7  O    2.274397   1.442197   1.411826   2.897434   2.391579
     8  O    1.448572   2.317248   1.451127   2.808798   2.457389
     9  O    3.813524   2.441057   3.579052   2.371128   3.116778
    10  O    3.116667   3.267204   3.114599   1.433082   2.426246
    11  O    4.191817   4.146036   2.461363   2.442764   1.416927
    12  H    1.092767   2.219671   3.171578   3.212758   3.797811
    13  H    1.094514   2.176947   2.928774   4.132526   4.153570
    14  H    2.203982   1.092610   3.177069   3.517067   3.876049
    15  H    3.137010   3.173542   1.092831   3.480233   2.206947
    16  H    4.131938   3.460458   3.441544   1.093188   2.180717
    17  H    4.037034   3.277371   2.130118   2.178461   1.095248
    18  H    2.834926   2.169957   3.702810   2.160306   3.467504
    19  H    4.042783   2.598778   4.162471   3.230219   3.961400
    20  H    2.463304   3.021351   2.691487   1.944846   2.485837
    21  H    4.108096   4.272917   2.885947   2.347488   1.923232
                    6          7          8          9         10
     6  C    0.000000
     7  O    2.440024   0.000000
     8  O    3.036300   2.286123   0.000000
     9  O    1.424765   2.909541   4.215376   0.000000
    10  O    2.484026   3.811676   2.762615   3.617088   0.000000
    11  O    3.801054   3.655202   3.039470   4.411863   2.694896
    12  H    2.766556   3.253505   2.081327   4.137771   2.853165
    13  H    3.508168   2.680338   2.090193   4.608329   4.189284
    14  H    2.189010   2.059228   3.270542   2.682199   4.243904
    15  H    3.880357   2.056052   2.085302   4.507144   4.026201
    16  H    2.148672   3.751651   3.887028   2.418380   2.021335
    17  H    2.920753   2.546159   3.365439   2.952748   3.351203
    18  H    1.099940   3.381327   3.558540   2.090036   2.559799
    19  H    1.958060   3.222041   4.709428   0.971039   4.363581
    20  H    2.727975   3.513301   1.967967   4.022999   0.977277
    21  H    3.802020   4.087667   3.018007   4.615983   2.075745
                   11         12         13         14         15
    11  O    0.000000
    12  H    4.569007   0.000000
    13  H    5.047679   1.785883   0.000000
    14  H    5.203330   2.793037   2.440790   0.000000
    15  H    2.707598   4.042990   3.477530   4.002260   0.000000
    16  H    2.820020   4.193873   5.189352   4.280866   4.331366
    17  H    2.040262   4.665722   4.832035   4.119932   2.555530
    18  H    4.538056   2.609843   3.746891   2.572285   4.793124
    19  H    5.306257   4.361002   4.679689   2.424617   5.068623
    20  H    2.738491   2.228500   3.465927   4.031233   3.539418
    21  H    0.975237   4.253886   5.032749   5.357938   3.307026
                   16         17         18         19         20
    16  H    0.000000
    17  H    2.433196   0.000000
    18  H    2.594477   3.940874   0.000000
    19  H    3.345701   3.791119   2.348108   0.000000
    20  H    2.814367   3.540396   2.865872   4.685046   0.000000
    21  H    2.732481   2.768585   4.327553   5.505233   2.159808
                   21
    21  H    0.000000
 Stoichiometry    C6H10O5
 Framework group  C1[X(C6H10O5)]
 Deg. of freedom    57
 Full point group                 C1      NOp   1
 Largest Abelian subgroup         C1      NOp   1
 Largest concise Abelian subgroup C1      NOp   1
                         Standard orientation:                         
 ---------------------------------------------------------------------
 Center     Atomic      Atomic             Coordinates (Angstroms)
 Number     Number       Type             X           Y           Z
 ---------------------------------------------------------------------
      1          6           0       -0.861572    1.583107    0.938605
      2          6           0       -1.497611    0.526779    0.036622
      3          6           0        0.470627    1.010255   -0.876978
      4          6           0        0.412651   -1.156327    0.373636
      5          6           0        1.084148   -0.398495   -0.794550
      6          6           0       -1.120182   -0.922486    0.406051
      7          8           0       -0.891614    0.878902   -1.223818
      8          8           0        0.491160    1.650905    0.424911
      9          8           0       -1.667263   -1.839892   -0.536829
     10          8           0        1.053470   -0.785037    1.600510
     11          8           0        2.492459   -0.373438   -0.640553
     12          1           0       -0.829957    1.320788    1.998949
     13          1           0       -1.352691    2.553713    0.817414
     14          1           0       -2.579360    0.638648   -0.068738
     15          1           0        0.975357    1.652004   -1.603398
     16          1           0        0.577928   -2.232136    0.271766
     17          1           0        0.857532   -0.896984   -1.743087
     18          1           0       -1.475183   -1.141759    1.423775
     19          1           0       -2.633250   -1.741286   -0.528931
     20          1           0        1.053790    0.192047    1.619932
     21          1           0        2.651785   -0.453539    0.318241
 ---------------------------------------------------------------------
 Rotational constants (GHZ):      1.4720266      1.2573936      1.0218957
 Standard basis: 6-31+G(d,p) (6D, 7F)
 There are   259 symmetry adapted basis functions of A   symmetry.
 Integral buffers will be    131072 words long.
 Raffenetti 2 integral format.
 Two-electron integral symmetry is turned on.
   259 basis functions,   422 primitive gaussians,   259 cartesian basis functions
    43 alpha electrons       43 beta electrons
       nuclear repulsion energy       734.8523103972 Hartrees.
 NAtoms=   21 NActive=   21 NUniq=   21 SFac= 1.00D+00 NAtFMM=   60 NAOKFM=F Big=F
 ------------------------------------------------------------------------------
 Polarizable Continuum Model (PCM)
 =================================
 Model                : PCM.
 Atomic radii         : UFF (Universal Force Field).
 Polarization charges : Total charges.
 Charge compensation  : None.
 Solution method      : Matrix inversion.
 Cavity type          : Scaled VdW (van der Waals Surface) (Alpha=1.100).
 Cavity algorithm     : GePol (No added spheres)
                        Default sphere list used, NSphG=   21.
                        Lebedev-Laikov grids with approx.  5.0 points / Ang**2.
                        Smoothing algorithm: Karplus/York (Gamma=1.0000).
                        Polarization charges: spherical gaussians, with
                                              point-specific exponents (IZeta= 3).
                        Self-potential: point-specific (ISelfS= 7).
                        Self-field    : sphere-specific E.n sum rule (ISelfD= 2).
 Solvent              : Water, Eps=  78.355300 Eps(inf)=   1.777849
 ------------------------------------------------------------------------------
 One-electron integrals computed using PRISM.
 NBasis=   259 RedAO= T  NBF=   259
 NBsUse=   259 1.00D-06 NBFU=   259
 Harris functional with IExCor=  908 diagonalized for initial guess.
 ExpMin= 4.38D-02 ExpMax= 5.48D+03 ExpMxC= 8.25D+02 IAcc=2 IRadAn=         4 AccDes= 0.00D+00
 HarFok:  IExCor=  908 AccDes= 0.00D+00 IRadAn=         4 IDoV= 1
 ScaDFX=  1.000000  1.000000  1.000000  1.000000
 FoFCou: FMM=F IPFlag=           0 FMFlag=      100000 FMFlg1=           0
         NFxFlg=           0 DoJE=T BraDBF=F KetDBF=T FulRan=T
         Omega=  0.000000  0.000000  1.000000  0.000000  0.000000 ICntrl=     500 IOpCl=  0
         NMat0=    1 NMatS0=    1 NMatT0=    0 NMatD0=    1 NMtDS0=    0 NMtDT0=    0
         I1Cent=           4 NGrid=           0.
 Petite list used in FoFCou.
 Initial guess orbital symmetries:
       Occupied  (A) (A) (A) (A) (A) (A) (A) (A) (A) (A) (A) (A)
                 (A) (A) (A) (A) (A) (A) (A) (A) (A) (A) (A) (A)
                 (A) (A) (A) (A) (A) (A) (A) (A) (A) (A) (A) (A)
                 (A) (A) (A) (A) (A) (A) (A)
       Virtual   (A) (A) (A) (A) (A) (A) (A) (A) (A) (A) (A) (A)
                 (A) (A) (A) (A) (A) (A) (A) (A) (A) (A) (A) (A)
                 (A) (A) (A) (A) (A) (A) (A) (A) (A) (A) (A) (A)
                 (A) (A) (A) (A) (A) (A) (A) (A) (A) (A) (A) (A)
                 (A) (A) (A) (A) (A) (A) (A) (A) (A) (A) (A) (A)
                 (A) (A) (A) (A) (A) (A) (A) (A) (A) (A) (A) (A)
                 (A) (A) (A) (A) (A) (A) (A) (A) (A) (A) (A) (A)
                 (A) (A) (A) (A) (A) (A) (A) (A) (A) (A) (A) (A)
                 (A) (A) (A) (A) (A) (A) (A) (A) (A) (A) (A) (A)
                 (A) (A) (A) (A) (A) (A) (A) (A) (A) (A) (A) (A)
                 (A) (A) (A) (A) (A) (A) (A) (A) (A) (A) (A) (A)
                 (A) (A) (A) (A) (A) (A) (A) (A) (A) (A) (A) (A)
                 (A) (A) (A) (A) (A) (A) (A) (A) (A) (A) (A) (A)
                 (A) (A) (A) (A) (A) (A) (A) (A) (A) (A) (A) (A)
                 (A) (A) (A) (A) (A) (A) (A) (A) (A) (A) (A) (A)
                 (A) (A) (A) (A) (A) (A) (A) (A) (A) (A) (A) (A)
                 (A) (A) (A) (A) (A) (A) (A) (A) (A) (A) (A) (A)
                 (A) (A) (A) (A) (A) (A) (A) (A) (A) (A) (A) (A)
 The electronic state of the initial guess is 1-A.
 Requested convergence on RMS density matrix=1.00D-08 within 128 cycles.
 Requested convergence on MAX density matrix=1.00D-06.
 Requested convergence on             energy=1.00D-06.
 No special actions if energy rises.
 Error on total polarization charges =  0.01144
 SCF Done:  E(RmPW1PW91) =  -610.647685789     A.U. after   12 cycles
             Convg  =    0.9311D-08             -V/T =  2.0090
 Range of M.O.s used for correlation:     1   259
 NBasis=   259 NAE=    43 NBE=    43 NFC=     0 NFV=     0
 NROrb=    259 NOA=    43 NOB=    43 NVA=   216 NVB=   216

 **** Warning!!: The largest alpha MO coefficient is  0.75555200D+02

 NEqPCM:  Using equilibrium solvation (IEInf=0, Eps=  78.3553, EpsInf=   1.7778)
          Differentiating once with respect to magnetic field using GIAOs.
          Electric field/nuclear overlap derivatives assumed to be zero.
 FoFCou: FMM=F IPFlag=           0 FMFlag=    10101102 FMFlg1=           0
         NFxFlg=    40000000 DoJE=F BraDBF=F KetDBF=T FulRan=T
         Omega=  0.000000  0.000000  1.000000  0.000000  0.000000 ICntrl=    6100 IOpCl=  0
         NMat0=    1 NMatS0=    1 NMatT0=    0 NMatD0=    1 NMtDS0=    0 NMtDT0=    0
         I1Cent=           7 NGrid=        1504.
 Symmetry not used in FoFCou.
          There are     3 degrees of freedom in the 1st order CPHF.  IDoFFX=0.
      3 vectors produced by pass  0 Test12= 3.10D-13 3.33D-08 XBig12= 2.07D+01 1.36D+00.
 AX will form     3 AO Fock derivatives at one time.
      3 vectors produced by pass  1 Test12= 3.10D-13 3.33D-08 XBig12= 4.89D-02 4.47D-02.
      3 vectors produced by pass  2 Test12= 3.10D-13 3.33D-08 XBig12= 1.32D-04 2.33D-03.
      3 vectors produced by pass  3 Test12= 3.10D-13 3.33D-08 XBig12= 6.58D-07 1.76D-04.
      3 vectors produced by pass  4 Test12= 3.10D-13 3.33D-08 XBig12= 1.83D-09 7.44D-06.
      3 vectors produced by pass  5 Test12= 3.10D-13 3.33D-08 XBig12= 6.04D-12 4.59D-07.
 Inverted reduced A of dimension    18 with in-core refinement.
 Calculating GIAO nuclear magnetic shielding tensors.
 SCF GIAO Magnetic shielding tensor (ppm):
      1  C    Isotropic =   129.9269   Anisotropy =    59.0362
   XX=   162.0840   YX=    11.7829   ZX=   -14.1948
   XY=     7.7292   YY=   112.0692   ZY=    11.7078
   XZ=   -22.4138   YZ=     2.4855   ZZ=   115.6274
   Eigenvalues:   100.3709   120.1253   169.2843
      2  C    Isotropic =   116.1237   Anisotropy =    42.0307
   XX=   103.5165   YX=     5.8784   ZX=   -14.2974
   XY=    16.7358   YY=   111.8518   ZY=    -0.7988
   XZ=   -20.5746   YZ=   -10.1481   ZZ=   133.0029
   Eigenvalues:    91.9150   112.3119   144.1442
      3  C    Isotropic =    89.5588   Anisotropy =    26.7478
   XX=    94.3886   YX=     1.1421   ZX=     9.5694
   XY=    -8.6121   YY=    79.1147   ZY=    22.0970
   XZ=     2.3157   YZ=    13.4711   ZZ=    95.1731
   Eigenvalues:    66.1853    95.1004   107.3906
      4  C    Isotropic =   121.2206   Anisotropy =    44.0996
   XX=   123.4285   YX=     8.2748   ZX=    22.2445
   XY=     4.2097   YY=   106.2574   ZY=    18.3655
   XZ=     6.5380   YZ=    14.4007   ZZ=   133.9758
   Eigenvalues:    98.6496   114.3918   150.6203
      5  C    Isotropic =   127.3740   Anisotropy =    46.2488
   XX=   153.6244   YX=    -3.4564   ZX=     7.6002
   XY=    -2.7394   YY=   120.9353   ZY=     4.1157
   XZ=    22.3827   YZ=     1.1694   ZZ=   107.5622
   Eigenvalues:   102.4780   121.4374   158.2065
      6  C    Isotropic =   120.9969   Anisotropy =    40.6518
   XX=   111.7435   YX=    10.7087   ZX=     9.1862
   XY=    10.0573   YY=   120.3255   ZY=    10.1929
   XZ=    15.9159   YZ=    18.3370   ZZ=   130.9217
   Eigenvalues:   104.2439   110.6488   148.0982
      7  O    Isotropic =   237.9053   Anisotropy =    61.3586
   XX=   261.3550   YX=     5.3882   ZX=     7.2601
   XY=   -11.2531   YY=   188.5243   ZY=    32.9339
   XZ=   -12.3760   YZ=    38.6209   ZZ=   263.8367
   Eigenvalues:   174.2019   260.7030   278.8110
      8  O    Isotropic =   269.6244   Anisotropy =    98.7563
   XX=   302.0002   YX=    24.0649   ZX=     0.0200
   XY=    22.9487   YY=   209.7067   ZY=    53.2351
   XZ=    20.7287   YZ=    55.9971   ZZ=   297.1664
   Eigenvalues:   181.1123   292.2991   335.4620
      9  O    Isotropic =   289.1338   Anisotropy =    81.6346
   XX=   337.4562   YX=     6.3797   ZX=    30.7921
   XY=   -15.1481   YY=   284.6983   ZY=    10.1597
   XZ=    18.0162   YZ=    12.5442   ZZ=   245.2469
   Eigenvalues:   236.1804   287.6642   343.5568
     10  O    Isotropic =   302.8969   Anisotropy =    54.3455
   XX=   275.5564   YX=   -10.2308   ZX=    -9.8245
   XY=    15.4983   YY=   335.7434   ZY=    23.5971
   XZ=    15.2053   YZ=    -0.4703   ZZ=   297.3908
   Eigenvalues:   275.2024   294.3610   339.1272
     11  O    Isotropic =   309.6208   Anisotropy =    32.8483
   XX=   321.4998   YX=    -5.9039   ZX=     1.5541
   XY=   -23.6433   YY=   300.0790   ZY=   -22.7670
   XZ=    -5.0629   YZ=   -12.8108   ZZ=   307.2836
   Eigenvalues:   281.4399   315.9028   331.5197
     12  H    Isotropic =    27.5177   Anisotropy =     7.2504
   XX=    26.1260   YX=    -0.8238   ZX=    -3.2910
   XY=    -1.4029   YY=    25.5732   ZY=     0.5912
   XZ=    -1.8650   YZ=     1.8498   ZZ=    30.8539
   Eigenvalues:    24.5750    25.6269    32.3513
     13  H    Isotropic =    27.7279   Anisotropy =    11.5474
   XX=    29.1402   YX=    -5.1251   ZX=    -1.8711
   XY=    -4.0017   YY=    31.0093   ZY=     2.5254
   XZ=    -1.7778   YZ=     2.0636   ZZ=    23.0343
   Eigenvalues:    22.3406    25.4171    35.4262
     14  H    Isotropic =    27.2424   Anisotropy =     7.7237
   XX=    32.1644   YX=    -0.3663   ZX=    -0.2581
   XY=    -1.1276   YY=    25.2736   ZY=    -0.3618
   XZ=    -1.9882   YZ=    -0.1358   ZZ=    24.2891
   Eigenvalues:    24.0287    25.3069    32.3915
     15  H    Isotropic =    26.0545   Anisotropy =     7.3402
   XX=    24.9629   YX=     0.9890   ZX=    -1.9355
   XY=     1.7802   YY=    25.1747   ZY=    -2.5701
   XZ=    -2.8334   YZ=    -2.8851   ZZ=    28.0261
   Eigenvalues:    23.5108    23.7048    30.9480
     16  H    Isotropic =    27.6488   Anisotropy =     6.5755
   XX=    25.8295   YX=     0.4536   ZX=     1.6890
   XY=     0.1205   YY=    31.6388   ZY=     0.6137
   XZ=     1.7472   YZ=     2.2683   ZZ=    25.4780
   Eigenvalues:    23.8231    27.0908    32.0324
     17  H    Isotropic =    27.8384   Anisotropy =     5.1670
   XX=    29.0293   YX=    -0.7051   ZX=     0.6701
   XY=    -0.5112   YY=    25.2439   ZY=     4.1643
   XZ=    -0.7156   YZ=     2.7489   ZZ=    29.2420
   Eigenvalues:    23.2042    29.0279    31.2831
     18  H    Isotropic =    27.4722   Anisotropy =     5.4257
   XX=    25.5868   YX=     2.6764   ZX=    -0.9274
   XY=     2.8717   YY=    26.4349   ZY=     0.0031
   XZ=    -1.1050   YZ=    -1.5475   ZZ=    30.3950
   Eigenvalues:    23.1942    28.1331    31.0893
     19  H    Isotropic =    30.0797   Anisotropy =    19.2914
   XX=    42.3171   YX=     1.9826   ZX=     1.6673
   XY=     2.1831   YY=    25.1238   ZY=     3.0316
   XZ=     3.2135   YZ=     2.1126   ZZ=    22.7982
   Eigenvalues:    21.0949    26.2036    42.9406
     20  H    Isotropic =    28.2246   Anisotropy =    18.3126
   XX=    19.7251   YX=    -1.7916   ZX=     4.5464
   XY=    -1.4694   YY=    40.2925   ZY=    -0.5337
   XZ=     3.8906   YZ=     0.3485   ZZ=    24.6562
   Eigenvalues:    17.2230    27.0178    40.4330
     21  H    Isotropic =    28.3001   Anisotropy =    15.7607
   XX=    28.8531   YX=    -0.4625   ZX=     2.3412
   XY=     0.2273   YY=    18.1857   ZY=    -3.0585
   XZ=     2.6353   YZ=    -2.0495   ZZ=    37.8616
   Eigenvalues:    17.8559    28.2372    38.8073
 End of Minotr Frequency-dependent properties file   721 does not exist.
 End of Minotr Frequency-dependent properties file   722 does not exist.

 **********************************************************************

            Population analysis using the SCF density.

 **********************************************************************

 Orbital symmetries:
       Occupied  (A) (A) (A) (A) (A) (A) (A) (A) (A) (A) (A) (A)
                 (A) (A) (A) (A) (A) (A) (A) (A) (A) (A) (A) (A)
                 (A) (A) (A) (A) (A) (A) (A) (A) (A) (A) (A) (A)
                 (A) (A) (A) (A) (A) (A) (A)
       Virtual   (A) (A) (A) (A) (A) (A) (A) (A) (A) (A) (A) (A)
                 (A) (A) (A) (A) (A) (A) (A) (A) (A) (A) (A) (A)
                 (A) (A) (A) (A) (A) (A) (A) (A) (A) (A) (A) (A)
                 (A) (A) (A) (A) (A) (A) (A) (A) (A) (A) (A) (A)
                 (A) (A) (A) (A) (A) (A) (A) (A) (A) (A) (A) (A)
                 (A) (A) (A) (A) (A) (A) (A) (A) (A) (A) (A) (A)
                 (A) (A) (A) (A) (A) (A) (A) (A) (A) (A) (A) (A)
                 (A) (A) (A) (A) (A) (A) (A) (A) (A) (A) (A) (A)
                 (A) (A) (A) (A) (A) (A) (A) (A) (A) (A) (A) (A)
                 (A) (A) (A) (A) (A) (A) (A) (A) (A) (A) (A) (A)
                 (A) (A) (A) (A) (A) (A) (A) (A) (A) (A) (A) (A)
                 (A) (A) (A) (A) (A) (A) (A) (A) (A) (A) (A) (A)
                 (A) (A) (A) (A) (A) (A) (A) (A) (A) (A) (A) (A)
                 (A) (A) (A) (A) (A) (A) (A) (A) (A) (A) (A) (A)
                 (A) (A) (A) (A) (A) (A) (A) (A) (A) (A) (A) (A)
                 (A) (A) (A) (A) (A) (A) (A) (A) (A) (A) (A) (A)
                 (A) (A) (A) (A) (A) (A) (A) (A) (A) (A) (A) (A)
                 (A) (A) (A) (A) (A) (A) (A) (A) (A) (A) (A) (A)
 The electronic state is 1-A.
 Alpha  occ. eigenvalues --  -19.28078 -19.28065 -19.26835 -19.26676 -19.26191
 Alpha  occ. eigenvalues --  -10.36082 -10.32282 -10.32035 -10.31942 -10.31432
 Alpha  occ. eigenvalues --  -10.31249  -1.14795  -1.08752  -1.07363  -1.05591
 Alpha  occ. eigenvalues --   -1.04350  -0.82686  -0.81030  -0.70780  -0.68933
 Alpha  occ. eigenvalues --   -0.65281  -0.61911  -0.58474  -0.55659  -0.54309
 Alpha  occ. eigenvalues --   -0.51226  -0.50692  -0.49185  -0.47842  -0.47036
 Alpha  occ. eigenvalues --   -0.45633  -0.43959  -0.42619  -0.41284  -0.39309
 Alpha  occ. eigenvalues --   -0.37881  -0.37080  -0.35843  -0.33898  -0.32492
 Alpha  occ. eigenvalues --   -0.31410  -0.29799  -0.27568
 Alpha virt. eigenvalues --    0.00687   0.01151   0.02272   0.02952   0.04181
 Alpha virt. eigenvalues --    0.04354   0.04904   0.05328   0.05577   0.07894
 Alpha virt. eigenvalues --    0.08842   0.09389   0.09854   0.10702   0.11477
 Alpha virt. eigenvalues --    0.12298   0.12596   0.13155   0.13671   0.14108
 Alpha virt. eigenvalues --    0.14482   0.15633   0.15866   0.17029   0.17346
 Alpha virt. eigenvalues --    0.18277   0.19340   0.19673   0.19754   0.20395
 Alpha virt. eigenvalues --    0.21437   0.21611   0.22481   0.23169   0.23947
 Alpha virt. eigenvalues --    0.24693   0.25209   0.25947   0.26310   0.27118
 Alpha virt. eigenvalues --    0.27363   0.28338   0.29301   0.29858   0.30814
 Alpha virt. eigenvalues --    0.31366   0.32010   0.32296   0.32979   0.33923
 Alpha virt. eigenvalues --    0.35005   0.35098   0.35728   0.36281   0.36519
 Alpha virt. eigenvalues --    0.37088   0.37741   0.38652   0.39394   0.39974
 Alpha virt. eigenvalues --    0.41383   0.43357   0.45683   0.47966   0.48442
 Alpha virt. eigenvalues --    0.53154   0.64641   0.66319   0.68139   0.68786
 Alpha virt. eigenvalues --    0.69254   0.71011   0.73688   0.74408   0.76526
 Alpha virt. eigenvalues --    0.79001   0.81171   0.83624   0.84503   0.86708
 Alpha virt. eigenvalues --    0.89331   0.89391   0.94877   0.97356   0.99590
 Alpha virt. eigenvalues --    1.00585   1.04811   1.05275   1.06548   1.08069
 Alpha virt. eigenvalues --    1.09578   1.10695   1.11085   1.11947   1.13153
 Alpha virt. eigenvalues --    1.18910   1.20635   1.24970   1.25215   1.25760
 Alpha virt. eigenvalues --    1.27502   1.29830   1.30712   1.31328   1.31711
 Alpha virt. eigenvalues --    1.34943   1.36715   1.38070   1.40143   1.42273
 Alpha virt. eigenvalues --    1.43802   1.44778   1.48762   1.49616   1.50923
 Alpha virt. eigenvalues --    1.54284   1.55855   1.56461   1.58463   1.59416
 Alpha virt. eigenvalues --    1.60305   1.63573   1.66425   1.67877   1.68053
 Alpha virt. eigenvalues --    1.69569   1.72602   1.76565   1.77243   1.79184
 Alpha virt. eigenvalues --    1.79637   1.82702   1.84799   1.86488   1.87055
 Alpha virt. eigenvalues --    1.90695   1.93949   1.94526   1.96910   1.98031
 Alpha virt. eigenvalues --    1.99694   2.04145   2.04583   2.07741   2.08744
 Alpha virt. eigenvalues --    2.10017   2.12013   2.14265   2.15032   2.15910
 Alpha virt. eigenvalues --    2.17416   2.21919   2.25077   2.26405   2.30324
 Alpha virt. eigenvalues --    2.31047   2.34990   2.36099   2.38953   2.41004
 Alpha virt. eigenvalues --    2.43757   2.46974   2.48185   2.50612   2.52031
 Alpha virt. eigenvalues --    2.56765   2.58217   2.58979   2.61654   2.63029
 Alpha virt. eigenvalues --    2.65610   2.66119   2.68212   2.69469   2.71962
 Alpha virt. eigenvalues --    2.73095   2.74196   2.75688   2.77727   2.80899
 Alpha virt. eigenvalues --    2.83576   2.84702   2.87306   2.90852   2.92454
 Alpha virt. eigenvalues --    2.95065   2.95683   2.97626   3.00021   3.01501
 Alpha virt. eigenvalues --    3.05132   3.07068   3.09360   3.15118   3.24390
 Alpha virt. eigenvalues --    3.34738   3.41341   3.46549   3.47744   3.49604
 Alpha virt. eigenvalues --    3.49748   3.52166   3.56941   3.58257   3.64506
 Alpha virt. eigenvalues --    4.28912   4.36399   4.44922   4.47456   4.51044
 Alpha virt. eigenvalues --    4.59639   4.64301   4.79753   4.87512   4.93135
 Alpha virt. eigenvalues --    5.03231
          Condensed to atoms (all electrons):
              1          2          3          4          5          6
     1  C    5.976388  -0.352941  -0.592267  -0.491835   0.533999   0.072852
     2  C   -0.352941   6.683067  -0.300584   0.808710  -0.332808  -0.906873
     3  C   -0.592267  -0.300584   7.431042   0.546474  -1.916407   0.461274
     4  C   -0.491835   0.808710   0.546474   7.902550  -1.410179  -1.278154
     5  C    0.533999  -0.332808  -1.916407  -1.410179   8.233254   0.015654
     6  C    0.072852  -0.906873   0.461274  -1.278154   0.015654   7.354788
     7  O   -0.009396   0.136411   0.247900  -0.107606   0.019603  -0.098971
     8  O    0.065598  -0.019912   0.165173   0.000569  -0.119292  -0.048543
     9  O    0.030237  -0.041928  -0.051736  -0.072115   0.021185   0.179397
    10  O    0.040228  -0.050547  -0.074081   0.068441   0.075515  -0.015860
    11  O    0.021935  -0.013338  -0.166933  -0.052937   0.288580   0.020537
    12  H    0.464187  -0.135965   0.014016  -0.035495   0.011298   0.051540
    13  H    0.353582   0.016573  -0.007674   0.012524  -0.002346  -0.000436
    14  H    0.023365   0.286925  -0.007321  -0.020858   0.018825   0.039583
    15  H    0.000916   0.045210   0.318731   0.042322  -0.004498  -0.028810
    16  H    0.002017  -0.015158   0.027953   0.330097  -0.040969   0.041895
    17  H    0.002123  -0.021522  -0.078662  -0.138092   0.515079   0.027669
    18  H    0.033555   0.016955  -0.039136  -0.012752   0.039644   0.259789
    19  H    0.012110  -0.045251   0.001837   0.012374  -0.001412   0.027811
    20  H   -0.002028  -0.002118   0.035915   0.002147  -0.034452  -0.009112
    21  H    0.002152  -0.011462  -0.012284  -0.116298   0.073997   0.027876
              7          8          9         10         11         12
     1  C   -0.009396   0.065598   0.030237   0.040228   0.021935   0.464187
     2  C    0.136411  -0.019912  -0.041928  -0.050547  -0.013338  -0.135965
     3  C    0.247900   0.165173  -0.051736  -0.074081  -0.166933   0.014016
     4  C   -0.107606   0.000569  -0.072115   0.068441  -0.052937  -0.035495
     5  C    0.019603  -0.119292   0.021185   0.075515   0.288580   0.011298
     6  C   -0.098971  -0.048543   0.179397  -0.015860   0.020537   0.051540
     7  O    8.247976  -0.073031   0.019673   0.004505   0.007142   0.012845
     8  O   -0.073031   8.542580   0.001932   0.011715   0.016015  -0.058723
     9  O    0.019673   0.001932   8.253571   0.006632  -0.000345  -0.000260
    10  O    0.004505   0.011715   0.006632   8.251853  -0.019588   0.001995
    11  O    0.007142   0.016015  -0.000345  -0.019588   8.227687   0.000219
    12  H    0.012845  -0.058723  -0.000260   0.001995   0.000219   0.514524
    13  H   -0.006697  -0.035535  -0.000250  -0.000561  -0.000078  -0.031873
    14  H   -0.034911   0.008558  -0.007058   0.000667   0.000041   0.001534
    15  H   -0.043545  -0.041635   0.000397  -0.001386   0.000412  -0.000206
    16  H   -0.000983   0.001480  -0.002497  -0.048130   0.002820  -0.000032
    17  H    0.001094   0.014676   0.003080   0.012338  -0.056861   0.000000
    18  H    0.010708  -0.003759  -0.033050  -0.002172  -0.000358   0.001008
    19  H   -0.002832  -0.000204   0.241617  -0.000013   0.000065   0.000014
    20  H   -0.001055   0.030100  -0.000389   0.249969  -0.007540  -0.000655
    21  H   -0.000087   0.002353  -0.000024   0.050193   0.246898   0.000015
             13         14         15         16         17         18
     1  C    0.353582   0.023365   0.000916   0.002017   0.002123   0.033555
     2  C    0.016573   0.286925   0.045210  -0.015158  -0.021522   0.016955
     3  C   -0.007674  -0.007321   0.318731   0.027953  -0.078662  -0.039136
     4  C    0.012524  -0.020858   0.042322   0.330097  -0.138092  -0.012752
     5  C   -0.002346   0.018825  -0.004498  -0.040969   0.515079   0.039644
     6  C   -0.000436   0.039583  -0.028810   0.041895   0.027669   0.259789
     7  O   -0.006697  -0.034911  -0.043545  -0.000983   0.001094   0.010708
     8  O   -0.035535   0.008558  -0.041635   0.001480   0.014676  -0.003759
     9  O   -0.000250  -0.007058   0.000397  -0.002497   0.003080  -0.033050
    10  O   -0.000561   0.000667  -0.001386  -0.048130   0.012338  -0.002172
    11  O   -0.000078   0.000041   0.000412   0.002820  -0.056861  -0.000358
    12  H   -0.031873   0.001534  -0.000206  -0.000032   0.000000   0.001008
    13  H    0.516394  -0.002398   0.000616   0.000002   0.000015  -0.000054
    14  H   -0.002398   0.499465   0.000047  -0.000114   0.000004  -0.001480
    15  H    0.000616   0.000047   0.526694  -0.000134  -0.002735   0.000024
    16  H    0.000002  -0.000114  -0.000134   0.512774  -0.003193  -0.003916
    17  H    0.000015   0.000004  -0.002735  -0.003193   0.526451  -0.000094
    18  H   -0.000054  -0.001480   0.000024  -0.003916  -0.000094   0.553569
    19  H   -0.000012   0.004041  -0.000001   0.000084  -0.000002  -0.004798
    20  H    0.000296  -0.000096  -0.000003   0.005361  -0.000310   0.000225
    21  H    0.000000   0.000001  -0.000224  -0.000520   0.005633  -0.000020
             19         20         21
     1  C    0.012110  -0.002028   0.002152
     2  C   -0.045251  -0.002118  -0.011462
     3  C    0.001837   0.035915  -0.012284
     4  C    0.012374   0.002147  -0.116298
     5  C   -0.001412  -0.034452   0.073997
     6  C    0.027811  -0.009112   0.027876
     7  O   -0.002832  -0.001055  -0.000087
     8  O   -0.000204   0.030100   0.002353
     9  O    0.241617  -0.000389  -0.000024
    10  O   -0.000013   0.249969   0.050193
    11  O    0.000065  -0.007540   0.246898
    12  H    0.000014  -0.000655   0.000015
    13  H   -0.000012   0.000296   0.000000
    14  H    0.004041  -0.000096   0.000001
    15  H   -0.000001  -0.000003  -0.000224
    16  H    0.000084   0.005361  -0.000520
    17  H   -0.000002  -0.000310   0.005633
    18  H   -0.004798   0.000225  -0.000020
    19  H    0.367255  -0.000001   0.000001
    20  H   -0.000001   0.319663  -0.003041
    21  H    0.000001  -0.003041   0.352252
 Mulliken atomic charges:
              1
     1  C   -0.186777
     2  C    0.256556
     3  C   -0.003230
     4  C    0.010113
     5  C    0.015730
     6  C   -0.193906
     7  O   -0.328746
     8  O   -0.460115
     9  O   -0.548069
    10  O   -0.561715
    11  O   -0.514373
    12  H    0.190013
    13  H    0.187912
    14  H    0.191181
    15  H    0.187810
    16  H    0.191163
    17  H    0.193308
    18  H    0.186112
    19  H    0.387317
    20  H    0.417124
    21  H    0.382592
 Sum of Mulliken atomic charges =   0.00000
 Mulliken charges with hydrogens summed into heavy atoms:
              1
     1  C    0.191149
     2  C    0.447738
     3  C    0.184580
     4  C    0.201276
     5  C    0.209038
     6  C   -0.007794
     7  O   -0.328746
     8  O   -0.460115
     9  O   -0.160753
    10  O   -0.144591
    11  O   -0.131781
 Sum of Mulliken charges with hydrogens summed into heavy atoms =   0.00000
 Electronic spatial extent (au):  <R**2>=           1369.2897
 Charge=              0.0000 electrons
 Dipole moment (field-independent basis, Debye):
    X=             -4.9868    Y=              1.3730    Z=              2.3003  Tot=              5.6608
 Quadrupole moment (field-independent basis, Debye-Ang):
   XX=            -60.6388   YY=            -68.0159   ZZ=            -67.5384
   XY=              0.5343   XZ=             -2.6342   YZ=              1.8902
 Traceless Quadrupole moment (field-independent basis, Debye-Ang):
   XX=              4.7589   YY=             -2.6182   ZZ=             -2.1407
   XY=              0.5343   XZ=             -2.6342   YZ=              1.8902
 Octapole moment (field-independent basis, Debye-Ang**2):
  XXX=            -50.0001  YYY=              5.2224  ZZZ=             -0.5527  XYY=             -4.9000
  XXY=             -4.2298  XXZ=             14.0968  XZZ=             -0.6523  YZZ=              9.2606
  YYZ=              1.7130  XYZ=             -3.0548
 Hexadecapole moment (field-independent basis, Debye-Ang**3):
 XXXX=           -654.4214 YYYY=           -609.2128 ZZZZ=           -375.0320 XXXY=             46.2172
 XXXZ=             60.3821 YYYX=            -17.6833 YYYZ=             -7.3983 ZZZX=            -13.3338
 ZZZY=             18.8464 XXYY=           -207.2493 XXZZ=           -192.7342 YYZZ=           -162.5660
 XXYZ=              3.5655 YYXZ=            -12.7936 ZZXY=             14.8364
 N-N= 7.348523103972D+02 E-N=-2.899347712710D+03  KE= 6.052035275110D+02
 1\1\GINC-COMPUTE-8-6\SP\RmPW1PW91\6-31+G(d,p)\C6H10O5\MMARCARINO.IQUIR
 \12-Apr-2019\0\\# mpw1pw91/6-31+g** nmr scrf=(pcm,solvent=water)\\comm
 ent\\0,1\C,0,-0.861572,1.583107,0.938605\C,0,-1.497611,0.526779,0.0366
 22\C,0,0.470627,1.010255,-0.876978\C,0,0.412651,-1.156327,0.373636\C,0
 ,1.084148,-0.398495,-0.79455\C,0,-1.120182,-0.922486,0.406051\O,0,-0.8
 91614,0.878902,-1.223818\O,0,0.49116,1.650905,0.424911\O,0,-1.667263,-
 1.839892,-0.536829\O,0,1.05347,-0.785037,1.60051\O,0,2.492459,-0.37343
 8,-0.640553\H,0,-0.829957,1.320788,1.998949\H,0,-1.352691,2.553713,0.8
 17414\H,0,-2.57936,0.638648,-0.068738\H,0,0.975357,1.652004,-1.603398\
 H,0,0.577928,-2.232136,0.271766\H,0,0.857532,-0.896984,-1.743087\H,0,-
 1.475183,-1.141759,1.423775\H,0,-2.63325,-1.741286,-0.528931\H,0,1.053
 79,0.192047,1.619932\H,0,2.651785,-0.453539,0.318241\\Version=EM64L-G0
 9RevC.01\State=1-A\HF=-610.6476858\RMSD=9.311e-09\Dipole=-1.9619655,0.
 5401805,0.9050034\Quadrupole=3.5381306,-1.9465415,-1.5915891,0.397253,
 -1.9584867,1.4053284\PG=C01 [X(C6H10O5)]\\@


 QUANTUM MECHANICS IS BOHRING -- M.S. GORDON
 Job cpu time:  0 days  0 hours 24 minutes 21.6 seconds.
 File lengths (MBytes):  RWF=     81 Int=      0 D2E=      0 Chk=      5 Scr=      1
 Normal termination of Gaussian 09 at Fri Apr 12 11:53:16 2019.
