 Entering Gaussian System, Link 0=g09
 Input=/home/mmarcarino.iquir/NMR/05_SSR_Levo13_OPTB_nmr.gjc
 Output=/home/mmarcarino.iquir/NMR/05_SSR_Levo13_OPTB_nmr.log
 Initial command:
 /share/apps/Gaussian09/EM64T.SSE4.2-enabled/g09/l1.exe /tmp/Gau-15203.inp -scrdir=/tmp/
 Entering Link 1 = /share/apps/Gaussian09/EM64T.SSE4.2-enabled/g09/l1.exe PID=     15204.
  
 Copyright (c) 1988,1990,1992,1993,1995,1998,2003,2009,2011,
            Gaussian, Inc.  All Rights Reserved.
  
 This is part of the Gaussian(R) 09 program.  It is based on
 the Gaussian(R) 03 system (copyright 2003, Gaussian, Inc.),
 the Gaussian(R) 98 system (copyright 1998, Gaussian, Inc.),
 the Gaussian(R) 94 system (copyright 1995, Gaussian, Inc.),
 the Gaussian 92(TM) system (copyright 1992, Gaussian, Inc.),
 the Gaussian 90(TM) system (copyright 1990, Gaussian, Inc.),
 the Gaussian 88(TM) system (copyright 1988, Gaussian, Inc.),
 the Gaussian 86(TM) system (copyright 1986, Carnegie Mellon
 University), and the Gaussian 82(TM) system (copyright 1983,
 Carnegie Mellon University). Gaussian is a federally registered
 trademark of Gaussian, Inc.
  
 This software contains proprietary and confidential information,
 including trade secrets, belonging to Gaussian, Inc.
  
 This software is provided under written license and may be
 used, copied, transmitted, or stored only in accord with that
 written license.
  
 The following legend is applicable only to US Government
 contracts under FAR:
  
                    RESTRICTED RIGHTS LEGEND
  
 Use, reproduction and disclosure by the US Government is
 subject to restrictions as set forth in subparagraphs (a)
 and (c) of the Commercial Computer Software - Restricted
 Rights clause in FAR 52.227-19.
  
 Gaussian, Inc.
 340 Quinnipiac St., Bldg. 40, Wallingford CT 06492
  
  
 ---------------------------------------------------------------
 Warning -- This program may not be used in any manner that
 competes with the business of Gaussian, Inc. or will provide
 assistance to any competitor of Gaussian, Inc.  The licensee
 of this program is prohibited from giving any competitor of
 Gaussian, Inc. access to this program.  By using this program,
 the user acknowledges that Gaussian, Inc. is engaged in the
 business of creating and licensing software in the field of
 computational chemistry and represents and warrants to the
 licensee that it is not a competitor of Gaussian, Inc. and that
 it will not use this program in any manner prohibited above.
 ---------------------------------------------------------------
  

 Cite this work as:
 Gaussian 09, Revision C.01,
 M. J. Frisch, G. W. Trucks, H. B. Schlegel, G. E. Scuseria, 
 M. A. Robb, J. R. Cheeseman, G. Scalmani, V. Barone, B. Mennucci, 
 G. A. Petersson, H. Nakatsuji, M. Caricato, X. Li, H. P. Hratchian, 
 A. F. Izmaylov, J. Bloino, G. Zheng, J. L. Sonnenberg, M. Hada, 
 M. Ehara, K. Toyota, R. Fukuda, J. Hasegawa, M. Ishida, T. Nakajima, 
 Y. Honda, O. Kitao, H. Nakai, T. Vreven, J. A. Montgomery, Jr., 
 J. E. Peralta, F. Ogliaro, M. Bearpark, J. J. Heyd, E. Brothers, 
 K. N. Kudin, V. N. Staroverov, T. Keith, R. Kobayashi, J. Normand, 
 K. Raghavachari, A. Rendell, J. C. Burant, S. S. Iyengar, J. Tomasi, 
 M. Cossi, N. Rega, J. M. Millam, M. Klene, J. E. Knox, J. B. Cross, 
 V. Bakken, C. Adamo, J. Jaramillo, R. Gomperts, R. E. Stratmann, 
 O. Yazyev, A. J. Austin, R. Cammi, C. Pomelli, J. W. Ochterski, 
 R. L. Martin, K. Morokuma, V. G. Zakrzewski, G. A. Voth, 
 P. Salvador, J. J. Dannenberg, S. Dapprich, A. D. Daniels, 
 O. Farkas, J. B. Foresman, J. V. Ortiz, J. Cioslowski, 
 and D. J. Fox, Gaussian, Inc., Wallingford CT, 2010.
 
 ******************************************
 Gaussian 09:  EM64L-G09RevC.01 23-Sep-2011
                12-Apr-2019 
 ******************************************
 %nprocshared=4
 Will use up to    4 processors via shared memory.
 ------------------------------------------------
 # mpw1pw91/6-31+g** nmr scrf=(pcm,solvent=water)
 ------------------------------------------------
 1/38=1/1;
 2/12=2,17=6,18=5,40=1/2;
 3/5=1,6=6,7=111,11=2,16=1,25=1,30=1,70=2201,72=1,74=-7/1,2,8,3;
 4//1;
 5/5=2,38=5,53=1/2;
 8/6=1,10=90,11=11/1;
 10/13=100,45=16/2;
 6/7=2,8=2,9=2,10=2,28=1/1;
 99/9=1/99;
 -------
 comment
 -------
 Charge =  0 Multiplicity = 1
 Symbolic Z-Matrix:
 6                    -1.65796   0.90468  -0.95691 
 6                    -0.56678   1.37595   0.02722 
 6                    -1.33492  -0.5637    0.76377 
 6                     1.16926  -0.38175   0.4507 
 6                    -0.018    -1.35722   0.46167 
 6                     0.85422   0.88289  -0.35179 
 8                    -0.9952    0.72777   1.24645 
 8                    -2.11307  -0.33807  -0.39563 
 8                     1.88841   1.81367  -0.02819 
 8                     2.28664  -1.08322  -0.08863 
 8                    -0.12411  -2.02519  -0.78634 
 1                    -1.27891   0.74494  -1.97122 
 1                    -2.50017   1.60324  -0.99301 
 1                    -0.57039   2.45348   0.19997 
 1                    -1.95395  -1.06512   1.50974 
 1                     1.37649  -0.06808   1.48141 
 1                     0.14218  -2.08537   1.27105 
 1                     0.89182   0.64246  -1.42187 
 1                     1.90956   2.49561  -0.71838 
 1                     2.97025  -0.41692  -0.27343 
 1                     0.79673  -2.22904  -1.03351 
 
                          Input orientation:                          
 ---------------------------------------------------------------------
 Center     Atomic      Atomic             Coordinates (Angstroms)
 Number     Number       Type             X           Y           Z
 ---------------------------------------------------------------------
      1          6           0       -1.657956    0.904680   -0.956909
      2          6           0       -0.566778    1.375951    0.027220
      3          6           0       -1.334916   -0.563701    0.763774
      4          6           0        1.169257   -0.381754    0.450699
      5          6           0       -0.017997   -1.357216    0.461671
      6          6           0        0.854224    0.882885   -0.351786
      7          8           0       -0.995195    0.727770    1.246446
      8          8           0       -2.113070   -0.338066   -0.395629
      9          8           0        1.888407    1.813672   -0.028193
     10          8           0        2.286641   -1.083215   -0.088631
     11          8           0       -0.124108   -2.025194   -0.786341
     12          1           0       -1.278913    0.744936   -1.971215
     13          1           0       -2.500171    1.603241   -0.993005
     14          1           0       -0.570390    2.453477    0.199974
     15          1           0       -1.953948   -1.065117    1.509738
     16          1           0        1.376485   -0.068076    1.481413
     17          1           0        0.142182   -2.085371    1.271046
     18          1           0        0.891818    0.642457   -1.421873
     19          1           0        1.909562    2.495609   -0.718375
     20          1           0        2.970254   -0.416916   -0.273426
     21          1           0        0.796726   -2.229043   -1.033513
 ---------------------------------------------------------------------
                    Distance matrix (angstroms):
                    1          2          3          4          5
     1  C    0.000000
     2  C    1.543138   0.000000
     3  C    2.285005   2.212419   0.000000
     4  C    3.410191   2.506527   2.530218   0.000000
     5  C    3.133370   2.821367   1.566910   1.536626   0.000000
     6  C    2.584124   1.551131   2.851214   1.530536   2.537821
     7  O    2.307666   1.445750   1.419958   2.559123   2.432685
     8  O    1.437561   2.346844   1.414443   3.389963   2.482531
     9  O    3.776966   2.494515   4.082760   2.359324   3.732141
    10  O    4.501720   3.768676   3.756616   1.425297   2.385218
    11  O    3.311487   3.525000   2.450485   2.429806   1.419503
    12  H    1.094536   2.213382   3.032463   3.623346   3.453677
    13  H    1.094813   2.197846   3.023199   4.414656   4.128144
    14  H    2.218096   1.091292   3.163184   3.335831   3.859405
    15  H    3.170498   3.175045   1.091367   3.367931   2.220737
    16  H    4.012418   2.824210   2.848218   1.097137   2.155536
    17  H    4.140614   3.745728   2.180510   2.151781   1.100434
    18  H    2.605053   2.182976   3.345178   2.152326   2.893820
    19  H    3.913456   2.818121   4.699232   3.192805   4.466794
    20  H    4.861491   3.976852   4.430781   1.941439   3.217791
    21  H    3.981401   3.997534   3.247692   2.398779   1.912964
                    6          7          8          9         10
     6  C    0.000000
     7  O    2.449236   0.000000
     8  O    3.208968   2.254343   0.000000
     9  O    1.428500   3.334524   4.558158   0.000000
    10  O    2.446757   3.979013   4.472913   2.924756   0.000000
    11  O    3.098854   3.531264   2.637238   4.400216   2.680641
    12  H    2.681763   3.230191   2.085949   3.866451   4.427125
    13  H    3.490278   2.836643   2.067699   4.498306   5.563138
    14  H    2.191055   2.062432   3.244583   2.550900   4.555668
    15  H    3.891762   2.050116   2.045567   5.041463   4.531855
    16  H    2.130188   2.512657   3.971546   2.466161   2.079406
    17  H    3.457041   3.034468   3.304095   4.465407   2.729788
    18  H    1.097408   3.269254   3.323244   2.075398   2.588631
    19  H    1.961888   3.927262   4.931070   0.970483   3.653320
    20  H    2.484594   4.398307   5.085404   2.491195   0.972332
    21  H    3.186244   4.141490   3.528399   4.306504   2.103704
                   11         12         13         14         15
    11  O    0.000000
    12  H    3.226627   0.000000
    13  H    4.342111   1.784672   0.000000
    14  H    4.607654   2.852223   2.422840   0.000000
    15  H    3.089019   3.981080   3.698948   4.001277   0.000000
    16  H    3.350343   4.430888   4.893312   3.433750   3.476590
    17  H    2.075421   4.532373   5.070879   4.717637   2.343428
    18  H    2.924443   2.241507   3.551425   2.836941   4.428153
    19  H    4.957630   3.847186   4.507492   2.644863   5.707010
    20  H    3.524871   4.720996   5.875745   4.582513   5.277083
    21  H    0.974979   3.745946   5.055450   5.031549   3.922889
                   16         17         18         19         20
    16  H    0.000000
    17  H    2.374287   0.000000
    18  H    3.028007   3.905741   0.000000
    19  H    3.419900   5.297811   2.228202   0.000000
    20  H    2.396090   3.628654   2.600211   3.131429   0.000000
    21  H    3.366118   2.400013   2.899203   4.864160   2.930147
                   21
    21  H    0.000000
 Stoichiometry    C6H10O5
 Framework group  C1[X(C6H10O5)]
 Deg. of freedom    57
 Full point group                 C1      NOp   1
 Largest Abelian subgroup         C1      NOp   1
 Largest concise Abelian subgroup C1      NOp   1
                         Standard orientation:                         
 ---------------------------------------------------------------------
 Center     Atomic      Atomic             Coordinates (Angstroms)
 Number     Number       Type             X           Y           Z
 ---------------------------------------------------------------------
      1          6           0        1.657956   -0.904680   -0.956909
      2          6           0        0.566778   -1.375951    0.027220
      3          6           0        1.334916    0.563701    0.763774
      4          6           0       -1.169257    0.381754    0.450699
      5          6           0        0.017997    1.357216    0.461671
      6          6           0       -0.854224   -0.882885   -0.351786
      7          8           0        0.995195   -0.727770    1.246446
      8          8           0        2.113070    0.338066   -0.395629
      9          8           0       -1.888407   -1.813672   -0.028193
     10          8           0       -2.286641    1.083215   -0.088631
     11          8           0        0.124108    2.025194   -0.786341
     12          1           0        1.278913   -0.744936   -1.971215
     13          1           0        2.500171   -1.603241   -0.993005
     14          1           0        0.570390   -2.453477    0.199974
     15          1           0        1.953948    1.065117    1.509738
     16          1           0       -1.376485    0.068076    1.481413
     17          1           0       -0.142182    2.085371    1.271046
     18          1           0       -0.891818   -0.642457   -1.421873
     19          1           0       -1.909562   -2.495609   -0.718375
     20          1           0       -2.970254    0.416916   -0.273426
     21          1           0       -0.796726    2.229043   -1.033513
 ---------------------------------------------------------------------
 Rotational constants (GHZ):      1.5792198      1.2148760      0.8663255
 Standard basis: 6-31+G(d,p) (6D, 7F)
 There are   259 symmetry adapted basis functions of A   symmetry.
 Integral buffers will be    131072 words long.
 Raffenetti 2 integral format.
 Two-electron integral symmetry is turned on.
   259 basis functions,   422 primitive gaussians,   259 cartesian basis functions
    43 alpha electrons       43 beta electrons
       nuclear repulsion energy       725.5953440189 Hartrees.
 NAtoms=   21 NActive=   21 NUniq=   21 SFac= 1.00D+00 NAtFMM=   60 NAOKFM=F Big=F
 ------------------------------------------------------------------------------
 Polarizable Continuum Model (PCM)
 =================================
 Model                : PCM.
 Atomic radii         : UFF (Universal Force Field).
 Polarization charges : Total charges.
 Charge compensation  : None.
 Solution method      : Matrix inversion.
 Cavity type          : Scaled VdW (van der Waals Surface) (Alpha=1.100).
 Cavity algorithm     : GePol (No added spheres)
                        Default sphere list used, NSphG=   21.
                        Lebedev-Laikov grids with approx.  5.0 points / Ang**2.
                        Smoothing algorithm: Karplus/York (Gamma=1.0000).
                        Polarization charges: spherical gaussians, with
                                              point-specific exponents (IZeta= 3).
                        Self-potential: point-specific (ISelfS= 7).
                        Self-field    : sphere-specific E.n sum rule (ISelfD= 2).
 Solvent              : Water, Eps=  78.355300 Eps(inf)=   1.777849
 ------------------------------------------------------------------------------
 One-electron integrals computed using PRISM.
 NBasis=   259 RedAO= T  NBF=   259
 NBsUse=   259 1.00D-06 NBFU=   259
 Harris functional with IExCor=  908 diagonalized for initial guess.
 ExpMin= 4.38D-02 ExpMax= 5.48D+03 ExpMxC= 8.25D+02 IAcc=2 IRadAn=         4 AccDes= 0.00D+00
 HarFok:  IExCor=  908 AccDes= 0.00D+00 IRadAn=         4 IDoV= 1
 ScaDFX=  1.000000  1.000000  1.000000  1.000000
 FoFCou: FMM=F IPFlag=           0 FMFlag=      100000 FMFlg1=           0
         NFxFlg=           0 DoJE=T BraDBF=F KetDBF=T FulRan=T
         Omega=  0.000000  0.000000  1.000000  0.000000  0.000000 ICntrl=     500 IOpCl=  0
         NMat0=    1 NMatS0=    1 NMatT0=    0 NMatD0=    1 NMtDS0=    0 NMtDT0=    0
         I1Cent=           4 NGrid=           0.
 Petite list used in FoFCou.
 Initial guess orbital symmetries:
       Occupied  (A) (A) (A) (A) (A) (A) (A) (A) (A) (A) (A) (A)
                 (A) (A) (A) (A) (A) (A) (A) (A) (A) (A) (A) (A)
                 (A) (A) (A) (A) (A) (A) (A) (A) (A) (A) (A) (A)
                 (A) (A) (A) (A) (A) (A) (A)
       Virtual   (A) (A) (A) (A) (A) (A) (A) (A) (A) (A) (A) (A)
                 (A) (A) (A) (A) (A) (A) (A) (A) (A) (A) (A) (A)
                 (A) (A) (A) (A) (A) (A) (A) (A) (A) (A) (A) (A)
                 (A) (A) (A) (A) (A) (A) (A) (A) (A) (A) (A) (A)
                 (A) (A) (A) (A) (A) (A) (A) (A) (A) (A) (A) (A)
                 (A) (A) (A) (A) (A) (A) (A) (A) (A) (A) (A) (A)
                 (A) (A) (A) (A) (A) (A) (A) (A) (A) (A) (A) (A)
                 (A) (A) (A) (A) (A) (A) (A) (A) (A) (A) (A) (A)
                 (A) (A) (A) (A) (A) (A) (A) (A) (A) (A) (A) (A)
                 (A) (A) (A) (A) (A) (A) (A) (A) (A) (A) (A) (A)
                 (A) (A) (A) (A) (A) (A) (A) (A) (A) (A) (A) (A)
                 (A) (A) (A) (A) (A) (A) (A) (A) (A) (A) (A) (A)
                 (A) (A) (A) (A) (A) (A) (A) (A) (A) (A) (A) (A)
                 (A) (A) (A) (A) (A) (A) (A) (A) (A) (A) (A) (A)
                 (A) (A) (A) (A) (A) (A) (A) (A) (A) (A) (A) (A)
                 (A) (A) (A) (A) (A) (A) (A) (A) (A) (A) (A) (A)
                 (A) (A) (A) (A) (A) (A) (A) (A) (A) (A) (A) (A)
                 (A) (A) (A) (A) (A) (A) (A) (A) (A) (A) (A) (A)
 The electronic state of the initial guess is 1-A.
 Requested convergence on RMS density matrix=1.00D-08 within 128 cycles.
 Requested convergence on MAX density matrix=1.00D-06.
 Requested convergence on             energy=1.00D-06.
 No special actions if energy rises.
 Error on total polarization charges =  0.01161
 SCF Done:  E(RmPW1PW91) =  -610.641750646     A.U. after   12 cycles
             Convg  =    0.4982D-08             -V/T =  2.0090
 Range of M.O.s used for correlation:     1   259
 NBasis=   259 NAE=    43 NBE=    43 NFC=     0 NFV=     0
 NROrb=    259 NOA=    43 NOB=    43 NVA=   216 NVB=   216

 **** Warning!!: The largest alpha MO coefficient is  0.59560931D+02

 NEqPCM:  Using equilibrium solvation (IEInf=0, Eps=  78.3553, EpsInf=   1.7778)
          Differentiating once with respect to magnetic field using GIAOs.
          Electric field/nuclear overlap derivatives assumed to be zero.
 FoFCou: FMM=F IPFlag=           0 FMFlag=    10101102 FMFlg1=           0
         NFxFlg=    40000000 DoJE=F BraDBF=F KetDBF=T FulRan=T
         Omega=  0.000000  0.000000  1.000000  0.000000  0.000000 ICntrl=    6100 IOpCl=  0
         NMat0=    1 NMatS0=    1 NMatT0=    0 NMatD0=    1 NMtDS0=    0 NMtDT0=    0
         I1Cent=           7 NGrid=        1525.
 Symmetry not used in FoFCou.
          There are     3 degrees of freedom in the 1st order CPHF.  IDoFFX=0.
      3 vectors produced by pass  0 Test12= 3.10D-13 3.33D-08 XBig12= 2.34D+01 9.90D-01.
 AX will form     3 AO Fock derivatives at one time.
      3 vectors produced by pass  1 Test12= 3.10D-13 3.33D-08 XBig12= 5.13D-02 3.49D-02.
      3 vectors produced by pass  2 Test12= 3.10D-13 3.33D-08 XBig12= 1.20D-04 1.64D-03.
      3 vectors produced by pass  3 Test12= 3.10D-13 3.33D-08 XBig12= 5.60D-07 1.53D-04.
      3 vectors produced by pass  4 Test12= 3.10D-13 3.33D-08 XBig12= 1.94D-09 7.49D-06.
      3 vectors produced by pass  5 Test12= 3.10D-13 3.33D-08 XBig12= 6.20D-12 4.31D-07.
 Inverted reduced A of dimension    18 with in-core refinement.
 Calculating GIAO nuclear magnetic shielding tensors.
 SCF GIAO Magnetic shielding tensor (ppm):
      1  C    Isotropic =   126.6441   Anisotropy =    53.0592
   XX=   115.7573   YX=    20.4893   ZX=    -2.8769
   XY=    24.6032   YY=   144.2946   ZY=    13.9522
   XZ=     4.9013   YZ=    18.7410   ZZ=   119.8805
   Eigenvalues:   100.2373   117.6782   162.0170
      2  C    Isotropic =   114.6598   Anisotropy =    42.2389
   XX=   114.4924   YX=    13.9395   ZX=     7.0990
   XY=     7.6660   YY=   106.8734   ZY=    17.4669
   XZ=    14.6511   YZ=    19.4128   ZZ=   122.6135
   Eigenvalues:    94.0805   107.0797   142.8190
      3  C    Isotropic =    95.6510   Anisotropy =    35.5221
   XX=    83.7347   YX=    -4.0030   ZX=   -26.1993
   XY=     4.9002   YY=   101.8187   ZY=    -4.1234
   XZ=   -19.6650   YZ=   -10.1745   ZZ=   101.3997
   Eigenvalues:    67.5891   100.0316   119.3324
      4  C    Isotropic =   124.7557   Anisotropy =    34.8270
   XX=   130.7555   YX=   -13.9758   ZX=     4.5702
   XY=   -13.3360   YY=   125.3336   ZY=    -4.3381
   XZ=    15.5890   YZ=   -13.2707   ZZ=   118.1781
   Eigenvalues:   112.1032   114.1903   147.9738
      5  C    Isotropic =   126.4091   Anisotropy =    36.5980
   XX=   117.4866   YX=    -2.2718   ZX=     0.0565
   XY=     0.5464   YY=   124.2481   ZY=   -20.9930
   XZ=    -5.2868   YZ=   -16.4468   ZZ=   137.4924
   Eigenvalues:   110.3228   118.0966   150.8077
      6  C    Isotropic =   116.7763   Anisotropy =    28.4267
   XX=   132.8575   YX=    13.4786   ZX=    -6.3933
   XY=    -5.5274   YY=   115.0243   ZY=    -7.3567
   XZ=    -5.0304   YZ=   -13.3147   ZZ=   102.4472
   Eigenvalues:    96.3739   118.2276   135.7275
      7  O    Isotropic =   240.7955   Anisotropy =    65.1286
   XX=   205.3982   YX=    -9.6834   ZX=   -41.2768
   XY=    19.3928   YY=   266.0872   ZY=   -21.6971
   XZ=   -50.0707   YZ=     5.2284   ZZ=   250.9010
   Eigenvalues:   177.1225   261.0494   284.2146
      8  O    Isotropic =   269.8753   Anisotropy =   113.3234
   XX=   241.0600   YX=    26.6159   ZX=   -71.3150
   XY=    31.5126   YY=   295.8687   ZY=    15.2138
   XZ=   -80.1008   YZ=   -27.3897   ZZ=   272.6970
   Eigenvalues:   176.5155   287.6861   345.4242
      9  O    Isotropic =   288.1841   Anisotropy =    35.6715
   XX=   283.3975   YX=    -3.1892   ZX=    -8.4685
   XY=    23.2037   YY=   308.1112   ZY=     8.7793
   XZ=   -15.9505   YZ=     6.6281   ZZ=   273.0436
   Eigenvalues:   261.8358   290.7514   311.9651
     10  O    Isotropic =   307.7309   Anisotropy =    22.2001
   XX=   312.7074   YX=    -1.8368   ZX=    12.8207
   XY=     3.5736   YY=   310.9888   ZY=    15.8242
   XZ=    11.4111   YZ=     1.2972   ZZ=   299.4964
   Eigenvalues:   289.9315   310.7302   322.5310
     11  O    Isotropic =   316.0847   Anisotropy =    47.5446
   XX=   338.4606   YX=   -16.8244   ZX=     3.3615
   XY=   -25.6766   YY=   298.6390   ZY=    14.9451
   XZ=    -2.4370   YZ=    -2.7742   ZZ=   311.1546
   Eigenvalues:   287.9889   312.4841   347.7811
     12  H    Isotropic =    27.7869   Anisotropy =     6.9432
   XX=    25.8891   YX=     0.0455   ZX=     1.0831
   XY=     0.5302   YY=    25.9300   ZY=     2.8593
   XZ=    -0.4873   YZ=     1.8340   ZZ=    31.5418
   Eigenvalues:    25.0435    25.9017    32.4157
     13  H    Isotropic =    27.6184   Anisotropy =    10.5700
   XX=    28.7492   YX=    -3.1870   ZX=    -2.7969
   XY=    -4.3207   YY=    30.4136   ZY=     3.2451
   XZ=    -1.7581   YZ=     2.5536   ZZ=    23.6925
   Eigenvalues:    22.4534    25.7368    34.6651
     14  H    Isotropic =    27.2070   Anisotropy =     6.9458
   XX=    25.9520   YX=    -0.8925   ZX=     0.5383
   XY=     0.5519   YY=    31.8090   ZY=    -0.0702
   XZ=     0.6139   YZ=     0.9702   ZZ=    23.8602
   Eigenvalues:    23.6839    26.0997    31.8376
     15  H    Isotropic =    25.9259   Anisotropy =     8.6389
   XX=    25.6243   YX=     2.0790   ZX=     2.4903
   XY=     1.6216   YY=    25.1564   ZY=     3.4807
   XZ=     3.2941   YZ=     3.6367   ZZ=    26.9970
   Eigenvalues:    22.3453    23.7473    31.6852
     16  H    Isotropic =    27.8786   Anisotropy =     3.9645
   XX=    28.4035   YX=    -1.6019   ZX=     0.1798
   XY=    -1.8214   YY=    25.2044   ZY=    -1.4575
   XZ=    -1.5287   YZ=    -1.7279   ZZ=    30.0278
   Eigenvalues:    23.9677    29.1465    30.5216
     17  H    Isotropic =    27.3664   Anisotropy =     7.9595
   XX=    23.7144   YX=    -0.1684   ZX=    -0.6073
   XY=     0.0695   YY=    27.6736   ZY=     2.5184
   XZ=    -0.0109   YZ=     3.7238   ZZ=    30.7113
   Eigenvalues:    23.6978    25.7287    32.6728
     18  H    Isotropic =    27.9648   Anisotropy =     4.3141
   XX=    28.6490   YX=     2.6624   ZX=    -1.0876
   XY=     2.8258   YY=    26.4069   ZY=    -1.4021
   XZ=     0.2514   YZ=    -0.3223   ZZ=    28.8385
   Eigenvalues:    24.5084    28.5450    30.8409
     19  H    Isotropic =    29.3109   Anisotropy =    19.2398
   XX=    24.8492   YX=     5.2701   ZX=     0.0531
   XY=     4.3440   YY=    33.9274   ZY=     9.6238
   XZ=     1.1900   YZ=     8.9063   ZZ=    29.1560
   Eigenvalues:    20.3352    25.4600    42.1374
     20  H    Isotropic =    28.9532   Anisotropy =    18.0107
   XX=    36.3183   YX=     5.6244   ZX=     4.1629
   XY=     5.8844   YY=    31.1371   ZY=     0.8497
   XZ=     4.2869   YZ=     2.4793   ZZ=    19.4042
   Eigenvalues:    18.3993    27.4999    40.9603
     21  H    Isotropic =    28.7858   Anisotropy =    17.9015
   XX=    38.3436   YX=    -2.8201   ZX=     3.6272
   XY=    -3.1038   YY=    24.6758   ZY=    -7.3188
   XZ=     4.2466   YZ=    -6.0325   ZZ=    23.3378
   Eigenvalues:    17.2529    28.3843    40.7201
 End of Minotr Frequency-dependent properties file   721 does not exist.
 End of Minotr Frequency-dependent properties file   722 does not exist.

 **********************************************************************

            Population analysis using the SCF density.

 **********************************************************************

 Orbital symmetries:
       Occupied  (A) (A) (A) (A) (A) (A) (A) (A) (A) (A) (A) (A)
                 (A) (A) (A) (A) (A) (A) (A) (A) (A) (A) (A) (A)
                 (A) (A) (A) (A) (A) (A) (A) (A) (A) (A) (A) (A)
                 (A) (A) (A) (A) (A) (A) (A)
       Virtual   (A) (A) (A) (A) (A) (A) (A) (A) (A) (A) (A) (A)
                 (A) (A) (A) (A) (A) (A) (A) (A) (A) (A) (A) (A)
                 (A) (A) (A) (A) (A) (A) (A) (A) (A) (A) (A) (A)
                 (A) (A) (A) (A) (A) (A) (A) (A) (A) (A) (A) (A)
                 (A) (A) (A) (A) (A) (A) (A) (A) (A) (A) (A) (A)
                 (A) (A) (A) (A) (A) (A) (A) (A) (A) (A) (A) (A)
                 (A) (A) (A) (A) (A) (A) (A) (A) (A) (A) (A) (A)
                 (A) (A) (A) (A) (A) (A) (A) (A) (A) (A) (A) (A)
                 (A) (A) (A) (A) (A) (A) (A) (A) (A) (A) (A) (A)
                 (A) (A) (A) (A) (A) (A) (A) (A) (A) (A) (A) (A)
                 (A) (A) (A) (A) (A) (A) (A) (A) (A) (A) (A) (A)
                 (A) (A) (A) (A) (A) (A) (A) (A) (A) (A) (A) (A)
                 (A) (A) (A) (A) (A) (A) (A) (A) (A) (A) (A) (A)
                 (A) (A) (A) (A) (A) (A) (A) (A) (A) (A) (A) (A)
                 (A) (A) (A) (A) (A) (A) (A) (A) (A) (A) (A) (A)
                 (A) (A) (A) (A) (A) (A) (A) (A) (A) (A) (A) (A)
                 (A) (A) (A) (A) (A) (A) (A) (A) (A) (A) (A) (A)
                 (A) (A) (A) (A) (A) (A) (A) (A) (A) (A) (A) (A)
 The electronic state is 1-A.
 Alpha  occ. eigenvalues --  -19.27678 -19.26901 -19.26857 -19.26706 -19.25734
 Alpha  occ. eigenvalues --  -10.36053 -10.31880 -10.31564 -10.31287 -10.31231
 Alpha  occ. eigenvalues --  -10.30593  -1.14317  -1.08850  -1.07043  -1.05304
 Alpha  occ. eigenvalues --   -1.03954  -0.82161  -0.80857  -0.70676  -0.68486
 Alpha  occ. eigenvalues --   -0.64535  -0.59969  -0.57689  -0.56106  -0.54423
 Alpha  occ. eigenvalues --   -0.52340  -0.50435  -0.48760  -0.47802  -0.46211
 Alpha  occ. eigenvalues --   -0.45019  -0.44298  -0.41199  -0.40279  -0.38555
 Alpha  occ. eigenvalues --   -0.37494  -0.37001  -0.35939  -0.33314  -0.31742
 Alpha  occ. eigenvalues --   -0.30106  -0.28900  -0.28374
 Alpha virt. eigenvalues --    0.00556   0.01138   0.01742   0.02686   0.03981
 Alpha virt. eigenvalues --    0.04516   0.04863   0.05319   0.05991   0.08085
 Alpha virt. eigenvalues --    0.08588   0.09345   0.09840   0.10249   0.11459
 Alpha virt. eigenvalues --    0.12277   0.12620   0.13168   0.13676   0.14067
 Alpha virt. eigenvalues --    0.15391   0.15721   0.15986   0.16212   0.17155
 Alpha virt. eigenvalues --    0.18256   0.18651   0.18977   0.21412   0.21716
 Alpha virt. eigenvalues --    0.21947   0.22051   0.22944   0.24140   0.24229
 Alpha virt. eigenvalues --    0.25101   0.25391   0.26151   0.26532   0.27436
 Alpha virt. eigenvalues --    0.28644   0.28786   0.29908   0.30081   0.30630
 Alpha virt. eigenvalues --    0.31687   0.32139   0.32376   0.32830   0.34096
 Alpha virt. eigenvalues --    0.34823   0.35776   0.36106   0.36780   0.37190
 Alpha virt. eigenvalues --    0.37514   0.38929   0.39594   0.39782   0.41176
 Alpha virt. eigenvalues --    0.41405   0.42564   0.43749   0.44617   0.45533
 Alpha virt. eigenvalues --    0.48135   0.63467   0.67545   0.68775   0.69730
 Alpha virt. eigenvalues --    0.71546   0.74502   0.75333   0.78079   0.79323
 Alpha virt. eigenvalues --    0.79880   0.80323   0.81695   0.83387   0.85495
 Alpha virt. eigenvalues --    0.87094   0.90863   0.94220   0.94946   0.98547
 Alpha virt. eigenvalues --    1.00963   1.01380   1.04172   1.05871   1.06295
 Alpha virt. eigenvalues --    1.07369   1.09059   1.09658   1.12233   1.14582
 Alpha virt. eigenvalues --    1.19228   1.22219   1.24703   1.26937   1.28777
 Alpha virt. eigenvalues --    1.29497   1.30424   1.31619   1.33671   1.34285
 Alpha virt. eigenvalues --    1.35585   1.37066   1.37963   1.39687   1.41748
 Alpha virt. eigenvalues --    1.42305   1.45025   1.47625   1.49635   1.51066
 Alpha virt. eigenvalues --    1.51699   1.54779   1.57759   1.59331   1.61581
 Alpha virt. eigenvalues --    1.63073   1.63503   1.65838   1.67094   1.69427
 Alpha virt. eigenvalues --    1.72115   1.74332   1.74986   1.78001   1.78438
 Alpha virt. eigenvalues --    1.81653   1.84221   1.85112   1.85734   1.86824
 Alpha virt. eigenvalues --    1.87702   1.93026   1.94653   1.96853   1.97564
 Alpha virt. eigenvalues --    1.99388   2.02319   2.03034   2.06011   2.09267
 Alpha virt. eigenvalues --    2.10966   2.11936   2.14151   2.15949   2.16936
 Alpha virt. eigenvalues --    2.21389   2.22812   2.24561   2.25957   2.29323
 Alpha virt. eigenvalues --    2.33757   2.36899   2.37563   2.43423   2.43933
 Alpha virt. eigenvalues --    2.45588   2.49021   2.49880   2.50785   2.53094
 Alpha virt. eigenvalues --    2.54111   2.58699   2.60062   2.61937   2.64025
 Alpha virt. eigenvalues --    2.65676   2.67013   2.68131   2.70066   2.71756
 Alpha virt. eigenvalues --    2.72100   2.73852   2.74891   2.77726   2.80567
 Alpha virt. eigenvalues --    2.82918   2.85745   2.88436   2.89830   2.91734
 Alpha virt. eigenvalues --    2.94269   2.96707   2.98232   3.00809   3.03730
 Alpha virt. eigenvalues --    3.05494   3.08178   3.11736   3.21425   3.27793
 Alpha virt. eigenvalues --    3.35458   3.40633   3.42322   3.45084   3.50660
 Alpha virt. eigenvalues --    3.52534   3.53207   3.54246   3.58682   3.60137
 Alpha virt. eigenvalues --    4.25121   4.34920   4.40101   4.51378   4.59261
 Alpha virt. eigenvalues --    4.60079   4.62592   4.75555   4.79491   4.97064
 Alpha virt. eigenvalues --    5.12574
          Condensed to atoms (all electrons):
              1          2          3          4          5          6
     1  C    5.502957  -0.044218  -0.212085   0.087630   0.041434  -0.233949
     2  C   -0.044218   6.550719  -0.502017  -0.162752   0.293693  -0.500835
     3  C   -0.212085  -0.502017   6.355723  -0.231529  -0.431531   0.207798
     4  C    0.087630  -0.162752  -0.231529   6.078489   0.102512  -0.115183
     5  C    0.041434   0.293693  -0.431531   0.102512   6.299524  -0.636098
     6  C   -0.233949  -0.500835   0.207798  -0.115183  -0.636098   7.003969
     7  O   -0.052209   0.145698   0.330676  -0.017243  -0.199082  -0.124661
     8  O    0.184101  -0.111780   0.348257   0.043277  -0.181353   0.021049
     9  O    0.018051  -0.090278  -0.013010  -0.084965   0.066438   0.181991
    10  O    0.002642   0.014515   0.056543   0.203404  -0.123647  -0.090386
    11  O    0.040249  -0.068147  -0.139062  -0.074043   0.203386   0.077618
    12  H    0.469860  -0.133541   0.011133   0.015857   0.005527  -0.015130
    13  H    0.384878  -0.006300  -0.007764  -0.001930  -0.000006   0.018575
    14  H    0.020470   0.314963   0.008218   0.014138  -0.002370  -0.013129
    15  H    0.014211   0.021333   0.357625   0.016834  -0.029973   0.002657
    16  H    0.003373   0.010472  -0.008915   0.321726  -0.017676  -0.020032
    17  H   -0.003722  -0.026489  -0.012168   0.022007   0.258590   0.072135
    18  H    0.038619  -0.093704  -0.001769  -0.097495   0.013131   0.426950
    19  H   -0.002537  -0.040355   0.000291   0.010807  -0.009645   0.053630
    20  H    0.000155   0.017209  -0.009751   0.043743   0.030165  -0.077096
    21  H   -0.003870   0.002218   0.037294  -0.055973   0.031357  -0.022228
              7          8          9         10         11         12
     1  C   -0.052209   0.184101   0.018051   0.002642   0.040249   0.469860
     2  C    0.145698  -0.111780  -0.090278   0.014515  -0.068147  -0.133541
     3  C    0.330676   0.348257  -0.013010   0.056543  -0.139062   0.011133
     4  C   -0.017243   0.043277  -0.084965   0.203404  -0.074043   0.015857
     5  C   -0.199082  -0.181353   0.066438  -0.123647   0.203386   0.005527
     6  C   -0.124661   0.021049   0.181991  -0.090386   0.077618  -0.015130
     7  O    8.340868  -0.071158   0.012108   0.001789   0.025528   0.013734
     8  O   -0.071158   8.289371  -0.000752  -0.004558  -0.020512  -0.050530
     9  O    0.012108  -0.000752   8.292192  -0.015359  -0.003062   0.000828
    10  O    0.001789  -0.004558  -0.015359   8.326820  -0.012679   0.000240
    11  O    0.025528  -0.020512  -0.003062  -0.012679   8.312589   0.001933
    12  H    0.013734  -0.050530   0.000828   0.000240   0.001933   0.545404
    13  H   -0.003886  -0.051830  -0.000308  -0.000019   0.000198  -0.039453
    14  H   -0.031885   0.007050  -0.002622  -0.000318   0.000397   0.002492
    15  H   -0.047978  -0.048215   0.000114  -0.000629   0.004989  -0.000281
    16  H    0.008952  -0.002726  -0.000986  -0.037149   0.008080   0.000006
    17  H    0.006075   0.002522  -0.001038  -0.000290  -0.041456  -0.000012
    18  H    0.013725  -0.004074  -0.045273   0.003440   0.007755   0.003687
    19  H   -0.000732   0.000146   0.238608   0.000600   0.000247   0.000022
    20  H   -0.000071   0.000060   0.016869   0.233959  -0.000741  -0.000002
    21  H   -0.000807  -0.000078  -0.000002   0.025665   0.232171  -0.000015
             13         14         15         16         17         18
     1  C    0.384878   0.020470   0.014211   0.003373  -0.003722   0.038619
     2  C   -0.006300   0.314963   0.021333   0.010472  -0.026489  -0.093704
     3  C   -0.007764   0.008218   0.357625  -0.008915  -0.012168  -0.001769
     4  C   -0.001930   0.014138   0.016834   0.321726   0.022007  -0.097495
     5  C   -0.000006  -0.002370  -0.029973  -0.017676   0.258590   0.013131
     6  C    0.018575  -0.013129   0.002657  -0.020032   0.072135   0.426950
     7  O   -0.003886  -0.031885  -0.047978   0.008952   0.006075   0.013725
     8  O   -0.051830   0.007050  -0.048215  -0.002726   0.002522  -0.004074
     9  O   -0.000308  -0.002622   0.000114  -0.000986  -0.001038  -0.045273
    10  O   -0.000019  -0.000318  -0.000629  -0.037149  -0.000290   0.003440
    11  O    0.000198   0.000397   0.004989   0.008080  -0.041456   0.007755
    12  H   -0.039453   0.002492  -0.000281   0.000006  -0.000012   0.003687
    13  H    0.533738  -0.004047   0.000215   0.000003   0.000009   0.000123
    14  H   -0.004047   0.489176  -0.000031  -0.000233   0.000008   0.001893
    15  H    0.000215  -0.000031   0.527733  -0.000041  -0.004798   0.000025
    16  H    0.000003  -0.000233  -0.000041   0.547755  -0.004465   0.004582
    17  H    0.000009   0.000008  -0.004798  -0.004465   0.568254  -0.000136
    18  H    0.000123   0.001893   0.000025   0.004582  -0.000136   0.550681
    19  H   -0.000015   0.001417   0.000000   0.000205   0.000005  -0.006223
    20  H    0.000000  -0.000008   0.000004  -0.003817  -0.000199  -0.001290
    21  H    0.000000  -0.000005  -0.000224   0.000624  -0.002691   0.000092
             19         20         21
     1  C   -0.002537   0.000155  -0.003870
     2  C   -0.040355   0.017209   0.002218
     3  C    0.000291  -0.009751   0.037294
     4  C    0.010807   0.043743  -0.055973
     5  C   -0.009645   0.030165   0.031357
     6  C    0.053630  -0.077096  -0.022228
     7  O   -0.000732  -0.000071  -0.000807
     8  O    0.000146   0.000060  -0.000078
     9  O    0.238608   0.016869  -0.000002
    10  O    0.000600   0.233959   0.025665
    11  O    0.000247  -0.000741   0.232171
    12  H    0.000022  -0.000002  -0.000015
    13  H   -0.000015   0.000000   0.000000
    14  H    0.001417  -0.000008  -0.000005
    15  H    0.000000   0.000004  -0.000224
    16  H    0.000205  -0.003817   0.000624
    17  H    0.000005  -0.000199  -0.002691
    18  H   -0.006223  -0.001290   0.000092
    19  H    0.360355  -0.001094  -0.000002
    20  H   -0.001094   0.360255  -0.000816
    21  H   -0.000002  -0.000816   0.365312
 Mulliken atomic charges:
              1
     1  C   -0.256039
     2  C    0.409594
     3  C   -0.143958
     4  C   -0.119310
     5  C    0.285624
     6  C   -0.217646
     7  O   -0.349440
     8  O   -0.348266
     9  O   -0.569545
    10  O   -0.584581
    11  O   -0.555439
    12  H    0.168241
    13  H    0.177818
    14  H    0.194428
    15  H    0.186429
    16  H    0.190263
    17  H    0.167859
    18  H    0.185260
    19  H    0.394270
    20  H    0.392464
    21  H    0.391976
 Sum of Mulliken atomic charges =   0.00000
 Mulliken charges with hydrogens summed into heavy atoms:
              1
     1  C    0.090019
     2  C    0.604021
     3  C    0.042471
     4  C    0.070952
     5  C    0.453483
     6  C   -0.032385
     7  O   -0.349440
     8  O   -0.348266
     9  O   -0.175275
    10  O   -0.192118
    11  O   -0.163462
 Sum of Mulliken charges with hydrogens summed into heavy atoms =   0.00000
 Electronic spatial extent (au):  <R**2>=           1443.5939
 Charge=              0.0000 electrons
 Dipole moment (field-independent basis, Debye):
    X=             -2.2107    Y=             -3.7130    Z=             -1.7512  Tot=              4.6626
 Quadrupole moment (field-independent basis, Debye-Ang):
   XX=            -67.7078   YY=            -61.7972   ZZ=            -63.1233
   XY=             -1.2117   XZ=              5.2084   YZ=             10.9601
 Traceless Quadrupole moment (field-independent basis, Debye-Ang):
   XX=             -3.4983   YY=              2.4122   ZZ=              1.0862
   XY=             -1.2117   XZ=              5.2084   YZ=             10.9601
 Octapole moment (field-independent basis, Debye-Ang**2):
  XXX=            -23.9044  YYY=            -27.4253  ZZZ=             -7.7327  XYY=             -4.1701
  XXY=            -11.0412  XXZ=             -7.8397  XZZ=             -5.9376  YZZ=              1.8282
  YYZ=             -8.1536  XYZ=              4.4054
 Hexadecapole moment (field-independent basis, Debye-Ang**3):
 XXXX=           -839.7859 YYYY=           -598.0007 ZZZZ=           -257.9341 XXXY=              4.5318
 XXXZ=             35.4835 YYYX=             10.3804 YYYZ=             28.9665 ZZZX=              4.1319
 ZZZY=              9.4332 XXYY=           -250.7694 XXZZ=           -177.6440 YYZZ=           -142.8285
 XXYZ=             24.2270 YYXZ=             31.1964 ZZXY=              5.8881
 N-N= 7.255953440189D+02 E-N=-2.881337221558D+03  KE= 6.052091093577D+02
 1\1\GINC-COMPUTE-8-8\SP\RmPW1PW91\6-31+G(d,p)\C6H10O5\MMARCARINO.IQUIR
 \12-Apr-2019\0\\# mpw1pw91/6-31+g** nmr scrf=(pcm,solvent=water)\\comm
 ent\\0,1\C,0,-1.657956,0.90468,-0.956909\C,0,-0.566778,1.375951,0.0272
 2\C,0,-1.334916,-0.563701,0.763774\C,0,1.169257,-0.381754,0.450699\C,0
 ,-0.017997,-1.357216,0.461671\C,0,0.854224,0.882885,-0.351786\O,0,-0.9
 95195,0.72777,1.246446\O,0,-2.11307,-0.338066,-0.395629\O,0,1.888407,1
 .813672,-0.028193\O,0,2.286641,-1.083215,-0.088631\O,0,-0.124108,-2.02
 5194,-0.786341\H,0,-1.278913,0.744936,-1.971215\H,0,-2.500171,1.603241
 ,-0.993005\H,0,-0.57039,2.453477,0.199974\H,0,-1.953948,-1.065117,1.50
 9738\H,0,1.376485,-0.068076,1.481413\H,0,0.142182,-2.085371,1.271046\H
 ,0,0.891818,0.642457,-1.421873\H,0,1.909562,2.495609,-0.718375\H,0,2.9
 70254,-0.416916,-0.273426\H,0,0.796726,-2.229043,-1.033513\\Version=EM
 64L-G09RevC.01\State=1-A\HF=-610.6417506\RMSD=4.982e-09\Dipole=0.86974
 74,1.460811,-0.6889727\Quadrupole=-2.6009273,1.7933991,0.8075282,-0.90
 08762,-3.8723277,-8.1485906\PG=C01 [X(C6H10O5)]\\@


 THE FIRST MORNING OF CREATION WROTE WHAT THE LAST DAWN OF
 RECKONING SHALL READ. -- OMAR KHAYYAM
 Job cpu time:  0 days  0 hours 20 minutes 58.2 seconds.
 File lengths (MBytes):  RWF=     82 Int=      0 D2E=      0 Chk=      5 Scr=      1
 Normal termination of Gaussian 09 at Fri Apr 12 11:58:15 2019.
