 Entering Gaussian System, Link 0=g09
 Input=/home/mmarcarino.iquir/NMR/06_SSS_Levo09_OPTB_nmr.gjc
 Output=/home/mmarcarino.iquir/NMR/06_SSS_Levo09_OPTB_nmr.log
 Initial command:
 /share/apps/Gaussian09/EM64T.SSE4.2-enabled/g09/l1.exe /tmp/Gau-10800.inp -scrdir=/tmp/
 Entering Link 1 = /share/apps/Gaussian09/EM64T.SSE4.2-enabled/g09/l1.exe PID=     10801.
  
 Copyright (c) 1988,1990,1992,1993,1995,1998,2003,2009,2011,
            Gaussian, Inc.  All Rights Reserved.
  
 This is part of the Gaussian(R) 09 program.  It is based on
 the Gaussian(R) 03 system (copyright 2003, Gaussian, Inc.),
 the Gaussian(R) 98 system (copyright 1998, Gaussian, Inc.),
 the Gaussian(R) 94 system (copyright 1995, Gaussian, Inc.),
 the Gaussian 92(TM) system (copyright 1992, Gaussian, Inc.),
 the Gaussian 90(TM) system (copyright 1990, Gaussian, Inc.),
 the Gaussian 88(TM) system (copyright 1988, Gaussian, Inc.),
 the Gaussian 86(TM) system (copyright 1986, Carnegie Mellon
 University), and the Gaussian 82(TM) system (copyright 1983,
 Carnegie Mellon University). Gaussian is a federally registered
 trademark of Gaussian, Inc.
  
 This software contains proprietary and confidential information,
 including trade secrets, belonging to Gaussian, Inc.
  
 This software is provided under written license and may be
 used, copied, transmitted, or stored only in accord with that
 written license.
  
 The following legend is applicable only to US Government
 contracts under FAR:
  
                    RESTRICTED RIGHTS LEGEND
  
 Use, reproduction and disclosure by the US Government is
 subject to restrictions as set forth in subparagraphs (a)
 and (c) of the Commercial Computer Software - Restricted
 Rights clause in FAR 52.227-19.
  
 Gaussian, Inc.
 340 Quinnipiac St., Bldg. 40, Wallingford CT 06492
  
  
 ---------------------------------------------------------------
 Warning -- This program may not be used in any manner that
 competes with the business of Gaussian, Inc. or will provide
 assistance to any competitor of Gaussian, Inc.  The licensee
 of this program is prohibited from giving any competitor of
 Gaussian, Inc. access to this program.  By using this program,
 the user acknowledges that Gaussian, Inc. is engaged in the
 business of creating and licensing software in the field of
 computational chemistry and represents and warrants to the
 licensee that it is not a competitor of Gaussian, Inc. and that
 it will not use this program in any manner prohibited above.
 ---------------------------------------------------------------
  

 Cite this work as:
 Gaussian 09, Revision C.01,
 M. J. Frisch, G. W. Trucks, H. B. Schlegel, G. E. Scuseria, 
 M. A. Robb, J. R. Cheeseman, G. Scalmani, V. Barone, B. Mennucci, 
 G. A. Petersson, H. Nakatsuji, M. Caricato, X. Li, H. P. Hratchian, 
 A. F. Izmaylov, J. Bloino, G. Zheng, J. L. Sonnenberg, M. Hada, 
 M. Ehara, K. Toyota, R. Fukuda, J. Hasegawa, M. Ishida, T. Nakajima, 
 Y. Honda, O. Kitao, H. Nakai, T. Vreven, J. A. Montgomery, Jr., 
 J. E. Peralta, F. Ogliaro, M. Bearpark, J. J. Heyd, E. Brothers, 
 K. N. Kudin, V. N. Staroverov, T. Keith, R. Kobayashi, J. Normand, 
 K. Raghavachari, A. Rendell, J. C. Burant, S. S. Iyengar, J. Tomasi, 
 M. Cossi, N. Rega, J. M. Millam, M. Klene, J. E. Knox, J. B. Cross, 
 V. Bakken, C. Adamo, J. Jaramillo, R. Gomperts, R. E. Stratmann, 
 O. Yazyev, A. J. Austin, R. Cammi, C. Pomelli, J. W. Ochterski, 
 R. L. Martin, K. Morokuma, V. G. Zakrzewski, G. A. Voth, 
 P. Salvador, J. J. Dannenberg, S. Dapprich, A. D. Daniels, 
 O. Farkas, J. B. Foresman, J. V. Ortiz, J. Cioslowski, 
 and D. J. Fox, Gaussian, Inc., Wallingford CT, 2010.
 
 ******************************************
 Gaussian 09:  EM64L-G09RevC.01 23-Sep-2011
                12-Apr-2019 
 ******************************************
 %nprocshared=4
 Will use up to    4 processors via shared memory.
 ------------------------------------------------
 # mpw1pw91/6-31+g** nmr scrf=(pcm,solvent=water)
 ------------------------------------------------
 1/38=1/1;
 2/12=2,17=6,18=5,40=1/2;
 3/5=1,6=6,7=111,11=2,16=1,25=1,30=1,70=2201,72=1,74=-7/1,2,8,3;
 4//1;
 5/5=2,38=5,53=1/2;
 8/6=1,10=90,11=11/1;
 10/13=100,45=16/2;
 6/7=2,8=2,9=2,10=2,28=1/1;
 99/9=1/99;
 -------
 comment
 -------
 Charge =  0 Multiplicity = 1
 Symbolic Z-Matrix:
 6                    -1.86479  -0.65956   0.7105 
 6                    -1.07333  -1.1118   -0.5148 
 6                    -0.99485   1.11045  -0.50171 
 6                     1.22368  -0.05259  -0.73208 
 6                     0.54559   1.27365  -0.31146 
 6                     0.44873  -1.30055  -0.24649 
 8                    -1.26415   0.03681  -1.37805 
 8                    -1.58315   0.75601   0.75956 
 8                     0.69671  -1.49947   1.1415 
 8                     2.54532  -0.07494  -0.18788 
 8                     0.84474   1.68117   1.01008 
 1                    -1.5406   -1.11978   1.64219 
 1                    -2.93865  -0.81325   0.55854 
 1                    -1.51216  -1.97124  -1.02174 
 1                    -1.47762   2.0124   -0.88342 
 1                     1.26007  -0.07187  -1.82643 
 1                     0.91415   2.06527  -0.97196 
 1                     0.80611  -2.17472  -0.81214 
 1                     1.61535  -1.18868   1.26458 
 1                     3.06188  -0.7176   -0.70192 
 1                     0.18545   1.22532   1.56678 
 
                          Input orientation:                          
 ---------------------------------------------------------------------
 Center     Atomic      Atomic             Coordinates (Angstroms)
 Number     Number       Type             X           Y           Z
 ---------------------------------------------------------------------
      1          6           0       -1.864794   -0.659564    0.710503
      2          6           0       -1.073331   -1.111797   -0.514804
      3          6           0       -0.994845    1.110449   -0.501707
      4          6           0        1.223680   -0.052586   -0.732076
      5          6           0        0.545594    1.273646   -0.311464
      6          6           0        0.448733   -1.300552   -0.246485
      7          8           0       -1.264148    0.036807   -1.378051
      8          8           0       -1.583145    0.756005    0.759561
      9          8           0        0.696711   -1.499466    1.141503
     10          8           0        2.545315   -0.074940   -0.187881
     11          8           0        0.844742    1.681166    1.010084
     12          1           0       -1.540604   -1.119784    1.642186
     13          1           0       -2.938650   -0.813249    0.558541
     14          1           0       -1.512158   -1.971240   -1.021743
     15          1           0       -1.477623    2.012397   -0.883419
     16          1           0        1.260071   -0.071874   -1.826434
     17          1           0        0.914147    2.065270   -0.971964
     18          1           0        0.806107   -2.174721   -0.812136
     19          1           0        1.615351   -1.188678    1.264575
     20          1           0        3.061884   -0.717598   -0.701920
     21          1           0        0.185452    1.225324    1.566775
 ---------------------------------------------------------------------
                    Distance matrix (angstroms):
                    1          2          3          4          5
     1  C    0.000000
     2  C    1.527189   0.000000
     3  C    2.314997   2.223670   0.000000
     4  C    3.462388   2.538778   2.515467   0.000000
     5  C    3.254487   2.890087   1.560698   1.547775   0.000000
     6  C    2.584395   1.557017   2.821698   1.547178   2.576839
     7  O    2.282053   1.449447   1.411811   2.571879   2.437734
     8  O    1.444150   2.317887   1.436149   3.279797   2.438560
     9  O    2.729928   2.454932   3.517550   2.425171   3.134342
    10  O    4.538495   3.778432   3.746514   1.429464   2.415128
    11  O    3.593098   3.715499   2.448532   2.486888   1.414939
    12  H    1.088547   2.207037   3.141348   3.797012   3.727932
    13  H    1.095390   2.172698   2.933107   4.423719   4.153552
    14  H    2.201255   1.090045   3.167784   3.354094   3.907445
    15  H    3.135261   3.171737   1.091920   3.403542   2.228518
    16  H    4.067703   2.871686   2.870093   1.095133   2.148496
    17  H    4.240039   3.775291   2.185652   2.153757   1.094879
    18  H    3.427513   2.179564   3.759273   2.164309   3.494249
    19  H    3.563477   3.225075   3.901136   2.330392   3.113088
    20  H    5.125472   4.158174   4.454087   1.955031   3.232526
    21  H    2.913677   3.373372   2.384306   2.827665   1.913065
                    6          7          8          9         10
     6  C    0.000000
     7  O    2.450088   0.000000
     8  O    3.061059   2.277804   0.000000
     9  O    1.423928   3.543057   3.229671   0.000000
    10  O    2.429242   3.992618   4.316515   2.685865   0.000000
    11  O    3.259821   3.585320   2.610234   3.186786   2.722311
    12  H    2.749039   3.245915   2.073505   2.323880   4.597345
    13  H    3.515664   2.697581   2.083353   3.745209   5.583558
    14  H    2.212677   2.054438   3.258212   3.127508   4.555696
    15  H    3.884863   2.047728   2.071000   4.600133   4.585279
    16  H    2.159666   2.566036   3.931492   3.341264   2.082479
    17  H    3.474433   3.004087   3.308900   4.149863   2.802855
    18  H    1.100840   3.081732   4.094864   2.069938   2.797073
    19  H    1.912280   4.095949   3.777196   0.977566   2.053016
    20  H    2.715845   4.443066   5.087605   3.098963   0.971642
    21  H    3.120461   3.490833   1.999948   2.804768   3.215347
                   11         12         13         14         15
    11  O    0.000000
    12  H    3.732928   0.000000
    13  H    4.554125   1.795211   0.000000
    14  H    4.798267   2.796838   2.423452   0.000000
    15  H    3.014705   4.024078   3.492581   3.986187   0.000000
    16  H    3.360280   4.579653   4.885386   3.455484   3.567693
    17  H    2.020116   4.796264   5.047015   4.709867   2.393992
    18  H    4.264955   3.555790   4.213735   2.336598   4.769954
    19  H    2.982383   3.179212   4.623673   3.952337   4.942393
    20  H    3.687919   5.180684   6.132236   4.753500   5.300277
    21  H    0.975889   2.912814   3.864237   4.449756   3.064107
                   16         17         18         19         20
    16  H    0.000000
    17  H    2.327481   0.000000
    18  H    2.378413   4.244378   0.000000
    19  H    3.305724   4.010233   2.437188   0.000000
    20  H    2.219915   3.525628   2.687729   2.486258   0.000000
    21  H    3.788324   2.771588   4.195800   2.821939   4.146780
                   21
    21  H    0.000000
 Stoichiometry    C6H10O5
 Framework group  C1[X(C6H10O5)]
 Deg. of freedom    57
 Full point group                 C1      NOp   1
 Largest Abelian subgroup         C1      NOp   1
 Largest concise Abelian subgroup C1      NOp   1
                         Standard orientation:                         
 ---------------------------------------------------------------------
 Center     Atomic      Atomic             Coordinates (Angstroms)
 Number     Number       Type             X           Y           Z
 ---------------------------------------------------------------------
      1          6           0       -1.864794   -0.659564    0.710503
      2          6           0       -1.073331   -1.111797   -0.514804
      3          6           0       -0.994845    1.110449   -0.501707
      4          6           0        1.223680   -0.052586   -0.732076
      5          6           0        0.545594    1.273646   -0.311464
      6          6           0        0.448733   -1.300552   -0.246485
      7          8           0       -1.264148    0.036807   -1.378051
      8          8           0       -1.583145    0.756005    0.759561
      9          8           0        0.696711   -1.499466    1.141503
     10          8           0        2.545315   -0.074940   -0.187881
     11          8           0        0.844742    1.681166    1.010084
     12          1           0       -1.540604   -1.119784    1.642186
     13          1           0       -2.938650   -0.813248    0.558541
     14          1           0       -1.512158   -1.971240   -1.021743
     15          1           0       -1.477623    2.012397   -0.883419
     16          1           0        1.260071   -0.071874   -1.826434
     17          1           0        0.914147    2.065270   -0.971964
     18          1           0        0.806107   -2.174721   -0.812136
     19          1           0        1.615351   -1.188678    1.264575
     20          1           0        3.061884   -0.717599   -0.701920
     21          1           0        0.185452    1.225324    1.566775
 ---------------------------------------------------------------------
 Rotational constants (GHZ):      1.6863390      1.1948470      1.0142651
 Standard basis: 6-31+G(d,p) (6D, 7F)
 There are   259 symmetry adapted basis functions of A   symmetry.
 Integral buffers will be    131072 words long.
 Raffenetti 2 integral format.
 Two-electron integral symmetry is turned on.
   259 basis functions,   422 primitive gaussians,   259 cartesian basis functions
    43 alpha electrons       43 beta electrons
       nuclear repulsion energy       736.8816856711 Hartrees.
 NAtoms=   21 NActive=   21 NUniq=   21 SFac= 1.00D+00 NAtFMM=   60 NAOKFM=F Big=F
 ------------------------------------------------------------------------------
 Polarizable Continuum Model (PCM)
 =================================
 Model                : PCM.
 Atomic radii         : UFF (Universal Force Field).
 Polarization charges : Total charges.
 Charge compensation  : None.
 Solution method      : Matrix inversion.
 Cavity type          : Scaled VdW (van der Waals Surface) (Alpha=1.100).
 Cavity algorithm     : GePol (No added spheres)
                        Default sphere list used, NSphG=   21.
                        Lebedev-Laikov grids with approx.  5.0 points / Ang**2.
                        Smoothing algorithm: Karplus/York (Gamma=1.0000).
                        Polarization charges: spherical gaussians, with
                                              point-specific exponents (IZeta= 3).
                        Self-potential: point-specific (ISelfS= 7).
                        Self-field    : sphere-specific E.n sum rule (ISelfD= 2).
 Solvent              : Water, Eps=  78.355300 Eps(inf)=   1.777849
 ------------------------------------------------------------------------------
 One-electron integrals computed using PRISM.
 NBasis=   259 RedAO= T  NBF=   259
 NBsUse=   259 1.00D-06 NBFU=   259
 Harris functional with IExCor=  908 diagonalized for initial guess.
 ExpMin= 4.38D-02 ExpMax= 5.48D+03 ExpMxC= 8.25D+02 IAcc=2 IRadAn=         4 AccDes= 0.00D+00
 HarFok:  IExCor=  908 AccDes= 0.00D+00 IRadAn=         4 IDoV= 1
 ScaDFX=  1.000000  1.000000  1.000000  1.000000
 FoFCou: FMM=F IPFlag=           0 FMFlag=      100000 FMFlg1=           0
         NFxFlg=           0 DoJE=T BraDBF=F KetDBF=T FulRan=T
         Omega=  0.000000  0.000000  1.000000  0.000000  0.000000 ICntrl=     500 IOpCl=  0
         NMat0=    1 NMatS0=    1 NMatT0=    0 NMatD0=    1 NMtDS0=    0 NMtDT0=    0
         I1Cent=           4 NGrid=           0.
 Petite list used in FoFCou.
 Initial guess orbital symmetries:
       Occupied  (A) (A) (A) (A) (A) (A) (A) (A) (A) (A) (A) (A)
                 (A) (A) (A) (A) (A) (A) (A) (A) (A) (A) (A) (A)
                 (A) (A) (A) (A) (A) (A) (A) (A) (A) (A) (A) (A)
                 (A) (A) (A) (A) (A) (A) (A)
       Virtual   (A) (A) (A) (A) (A) (A) (A) (A) (A) (A) (A) (A)
                 (A) (A) (A) (A) (A) (A) (A) (A) (A) (A) (A) (A)
                 (A) (A) (A) (A) (A) (A) (A) (A) (A) (A) (A) (A)
                 (A) (A) (A) (A) (A) (A) (A) (A) (A) (A) (A) (A)
                 (A) (A) (A) (A) (A) (A) (A) (A) (A) (A) (A) (A)
                 (A) (A) (A) (A) (A) (A) (A) (A) (A) (A) (A) (A)
                 (A) (A) (A) (A) (A) (A) (A) (A) (A) (A) (A) (A)
                 (A) (A) (A) (A) (A) (A) (A) (A) (A) (A) (A) (A)
                 (A) (A) (A) (A) (A) (A) (A) (A) (A) (A) (A) (A)
                 (A) (A) (A) (A) (A) (A) (A) (A) (A) (A) (A) (A)
                 (A) (A) (A) (A) (A) (A) (A) (A) (A) (A) (A) (A)
                 (A) (A) (A) (A) (A) (A) (A) (A) (A) (A) (A) (A)
                 (A) (A) (A) (A) (A) (A) (A) (A) (A) (A) (A) (A)
                 (A) (A) (A) (A) (A) (A) (A) (A) (A) (A) (A) (A)
                 (A) (A) (A) (A) (A) (A) (A) (A) (A) (A) (A) (A)
                 (A) (A) (A) (A) (A) (A) (A) (A) (A) (A) (A) (A)
                 (A) (A) (A) (A) (A) (A) (A) (A) (A) (A) (A) (A)
                 (A) (A) (A) (A) (A) (A) (A) (A) (A) (A) (A) (A)
 The electronic state of the initial guess is 1-A.
 Requested convergence on RMS density matrix=1.00D-08 within 128 cycles.
 Requested convergence on MAX density matrix=1.00D-06.
 Requested convergence on             energy=1.00D-06.
 No special actions if energy rises.
 Error on total polarization charges =  0.01139
 SCF Done:  E(RmPW1PW91) =  -610.641731751     A.U. after   12 cycles
             Convg  =    0.4719D-08             -V/T =  2.0090
 Range of M.O.s used for correlation:     1   259
 NBasis=   259 NAE=    43 NBE=    43 NFC=     0 NFV=     0
 NROrb=    259 NOA=    43 NOB=    43 NVA=   216 NVB=   216

 **** Warning!!: The largest alpha MO coefficient is  0.69406394D+02

 NEqPCM:  Using equilibrium solvation (IEInf=0, Eps=  78.3553, EpsInf=   1.7778)
          Differentiating once with respect to magnetic field using GIAOs.
          Electric field/nuclear overlap derivatives assumed to be zero.
 FoFCou: FMM=F IPFlag=           0 FMFlag=    10101102 FMFlg1=           0
         NFxFlg=    40000000 DoJE=F BraDBF=F KetDBF=T FulRan=T
         Omega=  0.000000  0.000000  1.000000  0.000000  0.000000 ICntrl=    6100 IOpCl=  0
         NMat0=    1 NMatS0=    1 NMatT0=    0 NMatD0=    1 NMtDS0=    0 NMtDT0=    0
         I1Cent=           7 NGrid=        1526.
 Symmetry not used in FoFCou.
          There are     3 degrees of freedom in the 1st order CPHF.  IDoFFX=0.
      3 vectors produced by pass  0 Test12= 3.10D-13 3.33D-08 XBig12= 2.40D+01 9.90D-01.
 AX will form     3 AO Fock derivatives at one time.
      3 vectors produced by pass  1 Test12= 3.10D-13 3.33D-08 XBig12= 5.54D-02 2.94D-02.
      3 vectors produced by pass  2 Test12= 3.10D-13 3.33D-08 XBig12= 1.17D-04 1.48D-03.
      3 vectors produced by pass  3 Test12= 3.10D-13 3.33D-08 XBig12= 5.94D-07 1.06D-04.
      3 vectors produced by pass  4 Test12= 3.10D-13 3.33D-08 XBig12= 1.70D-09 4.87D-06.
      3 vectors produced by pass  5 Test12= 3.10D-13 3.33D-08 XBig12= 5.22D-12 3.16D-07.
 Inverted reduced A of dimension    18 with in-core refinement.
 Calculating GIAO nuclear magnetic shielding tensors.
 SCF GIAO Magnetic shielding tensor (ppm):
      1  C    Isotropic =   131.1441   Anisotropy =    65.5605
   XX=   111.1576   YX=    11.8480   ZX=   -10.8666
   XY=    10.0252   YY=   172.5645   ZY=    12.1159
   XZ=    -3.5115   YZ=     0.6090   ZZ=   109.7103
   Eigenvalues:   101.1479   117.4332   174.8511
      2  C    Isotropic =   117.6658   Anisotropy =    52.7983
   XX=   103.4034   YX=   -17.4034   ZX=    -8.6606
   XY=    -5.8622   YY=   127.2590   ZY=   -26.3491
   XZ=    -0.0504   YZ=   -28.2139   ZZ=   122.3349
   Eigenvalues:    88.7539   111.3788   152.8646
      3  C    Isotropic =    95.5188   Anisotropy =    35.3713
   XX=    82.6259   YX=    18.8368   ZX=   -13.8150
   XY=     6.8160   YY=    89.9303   ZY=    11.0084
   XZ=   -10.3592   YZ=     7.8794   ZZ=   114.0004
   Eigenvalues:    67.8453    99.6115   119.0997
      4  C    Isotropic =   127.9296   Anisotropy =    45.6518
   XX=   150.7235   YX=    -0.1935   ZX=    10.8744
   XY=    -1.3098   YY=   117.6731   ZY=    -4.2024
   XZ=    24.9544   YZ=    -4.8223   ZZ=   115.3921
   Eigenvalues:   106.5374   118.8872   158.3641
      5  C    Isotropic =   125.8827   Anisotropy =    33.8502
   XX=   117.4157   YX=    -5.1723   ZX=     9.8376
   XY=    -4.8420   YY=   117.6079   ZY=    13.5063
   XZ=     6.2516   YZ=    10.2856   ZZ=   142.6244
   Eigenvalues:   106.8805   122.3180   148.4495
      6  C    Isotropic =   125.9002   Anisotropy =    33.0395
   XX=   117.0019   YX=    -1.2526   ZX=     6.8740
   XY=    -1.6810   YY=   116.1235   ZY=   -14.4317
   XZ=    -1.0572   YZ=    -5.0579   ZZ=   144.5753
   Eigenvalues:   113.0264   116.7477   147.9266
      7  O    Isotropic =   247.0435   Anisotropy =    72.3974
   XX=   203.5403   YX=    27.7270   ZX=    -6.0889
   XY=    18.3900   YY=   248.4204   ZY=     7.4717
   XZ=   -39.3457   YZ=    -5.2564   ZZ=   289.1697
   Eigenvalues:   189.2007   256.6214   295.3084
      8  O    Isotropic =   270.9547   Anisotropy =    99.6281
   XX=   200.3694   YX=    28.8049   ZX=   -47.8867
   XY=    33.3895   YY=   307.0110   ZY=     9.0202
   XZ=   -43.9918   YZ=    51.0354   ZZ=   305.4839
   Eigenvalues:   171.3538   304.1370   337.3735
      9  O    Isotropic =   303.9262   Anisotropy =    40.1049
   XX=   330.0597   YX=     4.5213   ZX=    -8.3296
   XY=    -1.6275   YY=   288.0132   ZY=    30.3209
   XZ=    -0.9898   YZ=     4.2714   ZZ=   293.7058
   Eigenvalues:   273.0322   308.0836   330.6628
     10  O    Isotropic =   314.6919   Anisotropy =    91.9860
   XX=   324.3482   YX=   -23.8839   ZX=   -13.8615
   XY=   -44.3883   YY=   323.8802   ZY=    12.2372
   XZ=   -48.4331   YZ=    31.8378   ZZ=   295.8473
   Eigenvalues:   275.8449   292.2148   376.0159
     11  O    Isotropic =   310.5004   Anisotropy =    69.7062
   XX=   319.2773   YX=    23.9794   ZX=   -35.3555
   XY=    30.9493   YY=   305.9801   ZY=    -3.1486
   XZ=   -25.6667   YZ=    -9.1850   ZZ=   306.2440
   Eigenvalues:   274.5611   299.9689   356.9712
     12  H    Isotropic =    26.8228   Anisotropy =     6.2094
   XX=    26.7411   YX=     0.0071   ZX=    -0.7838
   XY=     0.1470   YY=    26.6286   ZY=    -4.8773
   XZ=    -1.7131   YZ=    -2.8590   ZZ=    27.0986
   Eigenvalues:    22.8203    26.6857    30.9624
     13  H    Isotropic =    27.9784   Anisotropy =    12.1273
   XX=    33.4240   YX=     3.8956   ZX=    -2.1589
   XY=     5.3876   YY=    27.5557   ZY=     0.5033
   XZ=    -0.7106   YZ=     0.4213   ZZ=    22.9555
   Eigenvalues:    22.4115    25.4605    36.0633
     14  H    Isotropic =    26.7108   Anisotropy =     8.3565
   XX=    25.6297   YX=     2.4762   ZX=     1.8470
   XY=     1.8566   YY=    30.2629   ZY=     3.4440
   XZ=     1.7964   YZ=     1.6646   ZZ=    24.2399
   Eigenvalues:    22.8276    25.0230    32.2818
     15  H    Isotropic =    25.9716   Anisotropy =     9.0123
   XX=    24.3535   YX=    -2.6007   ZX=     0.6191
   XY=    -2.5515   YY=    29.2379   ZY=    -3.2817
   XZ=     1.3177   YZ=    -3.5742   ZZ=    24.3235
   Eigenvalues:    22.4648    23.4702    31.9798
     16  H    Isotropic =    27.7032   Anisotropy =     5.3000
   XX=    29.0411   YX=    -0.4687   ZX=    -0.2104
   XY=     0.0094   YY=    23.1782   ZY=     0.1327
   XZ=    -1.5231   YZ=     0.0468   ZZ=    30.8902
   Eigenvalues:    23.1688    28.7043    31.2365
     17  H    Isotropic =    27.6249   Anisotropy =     7.8417
   XX=    24.0878   YX=     0.8117   ZX=    -0.5951
   XY=     1.5508   YY=    29.6154   ZY=    -2.7726
   XZ=    -1.5755   YZ=    -3.5431   ZZ=    29.1715
   Eigenvalues:    23.7941    26.2279    32.8527
     18  H    Isotropic =    27.3770   Anisotropy =     8.5237
   XX=    24.4490   YX=    -1.6776   ZX=    -0.3834
   XY=    -1.9106   YY=    29.0600   ZY=     3.3888
   XZ=     0.1239   YZ=     4.5776   ZZ=    28.6219
   Eigenvalues:    23.3691    25.7024    33.0594
     19  H    Isotropic =    28.0769   Anisotropy =    17.0185
   XX=    37.5049   YX=     5.4582   ZX=     2.7285
   XY=     5.3814   YY=    21.9272   ZY=    -4.7699
   XZ=     3.3331   YZ=    -3.1053   ZZ=    24.7986
   Eigenvalues:    17.2808    27.5272    39.4225
     20  H    Isotropic =    30.1990   Anisotropy =    22.0489
   XX=    35.4383   YX=    -8.0947   ZX=    -5.3965
   XY=    -8.2764   YY=    28.5204   ZY=     7.1970
   XZ=    -5.9513   YZ=     6.4868   ZZ=    26.6383
   Eigenvalues:    20.5192    25.1795    44.8983
     21  H    Isotropic =    28.9388   Anisotropy =    16.2086
   XX=    31.8658   YX=     8.1741   ZX=    -3.9830
   XY=     7.3430   YY=    24.3104   ZY=    -2.6704
   XZ=    -5.7267   YZ=    -1.5731   ZZ=    30.6402
   Eigenvalues:    19.3966    27.6753    39.7446
 End of Minotr Frequency-dependent properties file   721 does not exist.
 End of Minotr Frequency-dependent properties file   722 does not exist.

 **********************************************************************

            Population analysis using the SCF density.

 **********************************************************************

 Orbital symmetries:
       Occupied  (A) (A) (A) (A) (A) (A) (A) (A) (A) (A) (A) (A)
                 (A) (A) (A) (A) (A) (A) (A) (A) (A) (A) (A) (A)
                 (A) (A) (A) (A) (A) (A) (A) (A) (A) (A) (A) (A)
                 (A) (A) (A) (A) (A) (A) (A)
       Virtual   (A) (A) (A) (A) (A) (A) (A) (A) (A) (A) (A) (A)
                 (A) (A) (A) (A) (A) (A) (A) (A) (A) (A) (A) (A)
                 (A) (A) (A) (A) (A) (A) (A) (A) (A) (A) (A) (A)
                 (A) (A) (A) (A) (A) (A) (A) (A) (A) (A) (A) (A)
                 (A) (A) (A) (A) (A) (A) (A) (A) (A) (A) (A) (A)
                 (A) (A) (A) (A) (A) (A) (A) (A) (A) (A) (A) (A)
                 (A) (A) (A) (A) (A) (A) (A) (A) (A) (A) (A) (A)
                 (A) (A) (A) (A) (A) (A) (A) (A) (A) (A) (A) (A)
                 (A) (A) (A) (A) (A) (A) (A) (A) (A) (A) (A) (A)
                 (A) (A) (A) (A) (A) (A) (A) (A) (A) (A) (A) (A)
                 (A) (A) (A) (A) (A) (A) (A) (A) (A) (A) (A) (A)
                 (A) (A) (A) (A) (A) (A) (A) (A) (A) (A) (A) (A)
                 (A) (A) (A) (A) (A) (A) (A) (A) (A) (A) (A) (A)
                 (A) (A) (A) (A) (A) (A) (A) (A) (A) (A) (A) (A)
                 (A) (A) (A) (A) (A) (A) (A) (A) (A) (A) (A) (A)
                 (A) (A) (A) (A) (A) (A) (A) (A) (A) (A) (A) (A)
                 (A) (A) (A) (A) (A) (A) (A) (A) (A) (A) (A) (A)
                 (A) (A) (A) (A) (A) (A) (A) (A) (A) (A) (A) (A)
 The electronic state is 1-A.
 Alpha  occ. eigenvalues --  -19.28069 -19.27536 -19.27239 -19.25702 -19.25483
 Alpha  occ. eigenvalues --  -10.36199 -10.32050 -10.31373 -10.31297 -10.31115
 Alpha  occ. eigenvalues --  -10.30465  -1.14619  -1.08829  -1.06427  -1.05328
 Alpha  occ. eigenvalues --   -1.04074  -0.81987  -0.80478  -0.70912  -0.68390
 Alpha  occ. eigenvalues --   -0.64100  -0.59904  -0.57765  -0.56612  -0.54042
 Alpha  occ. eigenvalues --   -0.52801  -0.50138  -0.48208  -0.47589  -0.46678
 Alpha  occ. eigenvalues --   -0.44820  -0.43432  -0.41753  -0.39367  -0.38658
 Alpha  occ. eigenvalues --   -0.38135  -0.36990  -0.36053  -0.33557  -0.32124
 Alpha  occ. eigenvalues --   -0.29942  -0.29581  -0.27478
 Alpha virt. eigenvalues --   -0.00076   0.01536   0.02204   0.02529   0.04036
 Alpha virt. eigenvalues --    0.04532   0.05138   0.05474   0.05888   0.07983
 Alpha virt. eigenvalues --    0.08538   0.09526   0.09836   0.10733   0.11405
 Alpha virt. eigenvalues --    0.12114   0.12854   0.13280   0.13817   0.14544
 Alpha virt. eigenvalues --    0.15623   0.16012   0.16505   0.16975   0.17399
 Alpha virt. eigenvalues --    0.17870   0.18742   0.19859   0.19919   0.20794
 Alpha virt. eigenvalues --    0.21292   0.22178   0.22504   0.22858   0.24515
 Alpha virt. eigenvalues --    0.25117   0.25480   0.26259   0.27061   0.27603
 Alpha virt. eigenvalues --    0.27682   0.28913   0.29633   0.30239   0.31258
 Alpha virt. eigenvalues --    0.31350   0.32107   0.32621   0.33582   0.34606
 Alpha virt. eigenvalues --    0.34806   0.35553   0.36082   0.36369   0.37158
 Alpha virt. eigenvalues --    0.38122   0.38778   0.39335   0.39976   0.41223
 Alpha virt. eigenvalues --    0.42264   0.43043   0.44987   0.46378   0.47305
 Alpha virt. eigenvalues --    0.50452   0.65189   0.66465   0.68192   0.70065
 Alpha virt. eigenvalues --    0.70419   0.74701   0.75477   0.77328   0.77530
 Alpha virt. eigenvalues --    0.78349   0.81413   0.81815   0.82808   0.86180
 Alpha virt. eigenvalues --    0.86734   0.90068   0.94247   0.96260   0.99181
 Alpha virt. eigenvalues --    1.01002   1.03483   1.04029   1.05334   1.07622
 Alpha virt. eigenvalues --    1.08872   1.09391   1.10723   1.13739   1.16829
 Alpha virt. eigenvalues --    1.20053   1.23116   1.24630   1.26735   1.28536
 Alpha virt. eigenvalues --    1.29051   1.30323   1.31651   1.33115   1.34246
 Alpha virt. eigenvalues --    1.35417   1.37098   1.38698   1.40445   1.42817
 Alpha virt. eigenvalues --    1.44583   1.44887   1.46437   1.50111   1.51889
 Alpha virt. eigenvalues --    1.53793   1.55677   1.56455   1.58996   1.59440
 Alpha virt. eigenvalues --    1.62102   1.64017   1.65209   1.68184   1.70516
 Alpha virt. eigenvalues --    1.71290   1.73306   1.75263   1.77453   1.81245
 Alpha virt. eigenvalues --    1.82027   1.82614   1.84024   1.85167   1.88359
 Alpha virt. eigenvalues --    1.89688   1.92888   1.95631   1.96882   1.98535
 Alpha virt. eigenvalues --    2.00296   2.01790   2.05510   2.07923   2.09601
 Alpha virt. eigenvalues --    2.10915   2.12140   2.13837   2.15533   2.17573
 Alpha virt. eigenvalues --    2.20145   2.21908   2.24612   2.28461   2.33109
 Alpha virt. eigenvalues --    2.34242   2.35384   2.38206   2.41617   2.42645
 Alpha virt. eigenvalues --    2.46641   2.49504   2.51579   2.52231   2.53411
 Alpha virt. eigenvalues --    2.56112   2.57664   2.60806   2.63132   2.64103
 Alpha virt. eigenvalues --    2.64434   2.66749   2.68102   2.68967   2.69948
 Alpha virt. eigenvalues --    2.70955   2.76369   2.76651   2.76982   2.81358
 Alpha virt. eigenvalues --    2.83117   2.85599   2.88291   2.88703   2.92020
 Alpha virt. eigenvalues --    2.93508   2.96591   2.97585   2.99692   3.02769
 Alpha virt. eigenvalues --    3.06863   3.09515   3.13067   3.17761   3.18955
 Alpha virt. eigenvalues --    3.36110   3.40960   3.42492   3.45952   3.50545
 Alpha virt. eigenvalues --    3.52272   3.54026   3.54490   3.60442   3.62036
 Alpha virt. eigenvalues --    4.25349   4.32308   4.44091   4.50250   4.53692
 Alpha virt. eigenvalues --    4.61291   4.63935   4.75686   4.81603   5.04096
 Alpha virt. eigenvalues --    5.07455
          Condensed to atoms (all electrons):
              1          2          3          4          5          6
     1  C    5.499259   0.002889  -0.139254   0.141706  -0.047945  -0.266082
     2  C    0.002889   6.794367  -0.762169  -0.196420   0.378923  -0.501732
     3  C   -0.139254  -0.762169   6.657363  -0.016988  -0.788590   0.368194
     4  C    0.141706  -0.196420  -0.016988   6.614833  -0.649570  -0.098113
     5  C   -0.047945   0.378923  -0.788590  -0.649570   7.115116  -0.417649
     6  C   -0.266082  -0.501732   0.368194  -0.098113  -0.417649   6.467529
     7  O   -0.033860   0.143620   0.304227   0.050937  -0.187629  -0.160329
     8  O    0.128566  -0.131234   0.241367   0.015783  -0.209285   0.110013
     9  O    0.025291  -0.187822  -0.060001  -0.053791   0.112288   0.213014
    10  O   -0.006135   0.076421   0.039671   0.212797  -0.136678  -0.104746
    11  O    0.030602  -0.043730  -0.060187  -0.109372   0.296763  -0.022304
    12  H    0.473029  -0.114175   0.019501   0.001875   0.001903  -0.000485
    13  H    0.372165  -0.014118  -0.021129  -0.003681   0.008563   0.032506
    14  H    0.000404   0.300997   0.010345   0.014561  -0.002143   0.019112
    15  H    0.007943   0.027746   0.330040   0.013729  -0.006829  -0.002609
    16  H    0.002392  -0.006387  -0.011995   0.297271   0.021585   0.000892
    17  H   -0.001746  -0.031944   0.020273  -0.052376   0.330519   0.071293
    18  H    0.015777  -0.008733  -0.033032   0.020625   0.049594   0.268948
    19  H   -0.002572   0.042152  -0.008253  -0.056186   0.003100   0.003940
    20  H    0.000101   0.009539  -0.005479   0.027528   0.017152  -0.048367
    21  H    0.002308  -0.012576  -0.038115  -0.032315   0.014106   0.041908
              7          8          9         10         11         12
     1  C   -0.033860   0.128566   0.025291  -0.006135   0.030602   0.473029
     2  C    0.143620  -0.131234  -0.187822   0.076421  -0.043730  -0.114175
     3  C    0.304227   0.241367  -0.060001   0.039671  -0.060187   0.019501
     4  C    0.050937   0.015783  -0.053791   0.212797  -0.109372   0.001875
     5  C   -0.187629  -0.209285   0.112288  -0.136678   0.296763   0.001903
     6  C   -0.160329   0.110013   0.213014  -0.104746  -0.022304  -0.000485
     7  O    8.339863  -0.068854   0.016317  -0.001307   0.015150   0.012509
     8  O   -0.068854   8.464819   0.001874  -0.004941  -0.017252  -0.057680
     9  O    0.016317   0.001874   8.328870  -0.052201   0.022304  -0.004353
    10  O   -0.001307  -0.004941  -0.052201   8.324936  -0.000436   0.000099
    11  O    0.015150  -0.017252   0.022304  -0.000436   8.198098   0.000673
    12  H    0.012509  -0.057680  -0.004353   0.000099   0.000673   0.502960
    13  H   -0.008026  -0.038849  -0.000053  -0.000001  -0.000719  -0.034574
    14  H   -0.039705   0.010072   0.005650  -0.000407   0.000100   0.001772
    15  H   -0.050081  -0.034543   0.000468  -0.000428   0.002046  -0.000246
    16  H    0.001666  -0.001186   0.006458  -0.033506   0.007287  -0.000005
    17  H    0.001968   0.006367  -0.000374   0.000664  -0.054866  -0.000001
    18  H    0.007397  -0.001213  -0.045185  -0.006500   0.000301   0.000013
    19  H   -0.000593  -0.002243   0.237694   0.039349  -0.002823   0.000406
    20  H    0.000122   0.000035   0.002960   0.247268  -0.000021  -0.000002
    21  H    0.000310   0.029514  -0.003042  -0.002665   0.256654  -0.000061
             13         14         15         16         17         18
     1  C    0.372165   0.000404   0.007943   0.002392  -0.001746   0.015777
     2  C   -0.014118   0.300997   0.027746  -0.006387  -0.031944  -0.008733
     3  C   -0.021129   0.010345   0.330040  -0.011995   0.020273  -0.033032
     4  C   -0.003681   0.014561   0.013729   0.297271  -0.052376   0.020625
     5  C    0.008563  -0.002143  -0.006829   0.021585   0.330519   0.049594
     6  C    0.032506   0.019112  -0.002609   0.000892   0.071293   0.268948
     7  O   -0.008026  -0.039705  -0.050081   0.001666   0.001968   0.007397
     8  O   -0.038849   0.010072  -0.034543  -0.001186   0.006367  -0.001213
     9  O   -0.000053   0.005650   0.000468   0.006458  -0.000374  -0.045185
    10  O   -0.000001  -0.000407  -0.000428  -0.033506   0.000664  -0.006500
    11  O   -0.000719   0.000100   0.002046   0.007287  -0.054866   0.000301
    12  H   -0.034574   0.001772  -0.000246  -0.000005  -0.000001   0.000013
    13  H    0.533847  -0.003107   0.000563   0.000001   0.000006  -0.000066
    14  H   -0.003107   0.492897  -0.000001  -0.000070   0.000016  -0.006717
    15  H    0.000563  -0.000001   0.527702  -0.000150  -0.004851   0.000010
    16  H    0.000001  -0.000070  -0.000150   0.538299  -0.005419  -0.004224
    17  H    0.000006   0.000016  -0.004851  -0.005419   0.540603  -0.000222
    18  H   -0.000066  -0.006717   0.000010  -0.004224  -0.000222   0.577281
    19  H   -0.000012  -0.000230  -0.000009   0.001034  -0.000064  -0.000651
    20  H    0.000000  -0.000003   0.000005  -0.008906  -0.000072   0.002629
    21  H    0.000081  -0.000006   0.000293  -0.000163   0.006226  -0.000051
             19         20         21
     1  C   -0.002572   0.000101   0.002308
     2  C    0.042152   0.009539  -0.012576
     3  C   -0.008253  -0.005479  -0.038115
     4  C   -0.056186   0.027528  -0.032315
     5  C    0.003100   0.017152   0.014106
     6  C    0.003940  -0.048367   0.041908
     7  O   -0.000593   0.000122   0.000310
     8  O   -0.002243   0.000035   0.029514
     9  O    0.237694   0.002960  -0.003042
    10  O    0.039349   0.247268  -0.002665
    11  O   -0.002823  -0.000021   0.256654
    12  H    0.000406  -0.000002  -0.000061
    13  H   -0.000012   0.000000   0.000081
    14  H   -0.000230  -0.000003  -0.000006
    15  H   -0.000009   0.000005   0.000293
    16  H    0.001034  -0.008906  -0.000163
    17  H   -0.000064  -0.000072   0.006226
    18  H   -0.000651   0.002629  -0.000051
    19  H    0.350951  -0.002917   0.000177
    20  H   -0.002917   0.349006   0.000004
    21  H    0.000177   0.000004   0.338817
 Mulliken atomic charges:
              1
     1  C   -0.204838
     2  C    0.234386
     3  C   -0.045789
     4  C   -0.142831
     5  C    0.096709
     6  C    0.025066
     7  O   -0.343703
     8  O   -0.441131
     9  O   -0.566367
    10  O   -0.591254
    11  O   -0.518267
    12  H    0.196842
    13  H    0.176603
    14  H    0.196465
    15  H    0.189201
    16  H    0.195125
    17  H    0.174001
    18  H    0.164018
    19  H    0.397751
    20  H    0.409418
    21  H    0.398596
 Sum of Mulliken atomic charges =   0.00000
 Mulliken charges with hydrogens summed into heavy atoms:
              1
     1  C    0.168608
     2  C    0.430851
     3  C    0.143412
     4  C    0.052293
     5  C    0.270709
     6  C    0.189084
     7  O   -0.343703
     8  O   -0.441131
     9  O   -0.168616
    10  O   -0.181837
    11  O   -0.119672
 Sum of Mulliken charges with hydrogens summed into heavy atoms =   0.00000
 Electronic spatial extent (au):  <R**2>=           1352.3717
 Charge=              0.0000 electrons
 Dipole moment (field-independent basis, Debye):
    X=              0.0002    Y=             -3.4933    Z=             -3.4352  Tot=              4.8993
 Quadrupole moment (field-independent basis, Debye-Ang):
   XX=            -61.8987   YY=            -64.6883   ZZ=            -65.8484
   XY=             -4.1098   XZ=             -6.5872   YZ=             -1.0609
 Traceless Quadrupole moment (field-independent basis, Debye-Ang):
   XX=              2.2464   YY=             -0.5432   ZZ=             -1.7032
   XY=             -4.1098   XZ=             -6.5872   YZ=             -1.0609
 Octapole moment (field-independent basis, Debye-Ang**2):
  XXX=             14.1708  YYY=             -3.7685  ZZZ=              8.8808  XYY=             -6.6431
  XXY=            -28.0438  XXZ=             -8.7335  XZZ=             10.7411  YZZ=             -0.5719
  YYZ=            -19.9425  XYZ=              2.3104
 Hexadecapole moment (field-independent basis, Debye-Ang**3):
 XXXX=           -739.7633 YYYY=           -544.8382 ZZZZ=           -329.5034 XXXY=            -45.7973
 XXXZ=            -30.3272 YYYX=            -14.3689 YYYZ=             -3.4641 ZZZX=            -11.0960
 ZZZY=              5.5232 XXYY=           -206.7333 XXZZ=           -183.6998 YYZZ=           -147.7086
 XXYZ=             -5.6951 YYXZ=             -3.8759 ZZXY=             -4.8779
 N-N= 7.368816856711D+02 E-N=-2.903846998934D+03  KE= 6.052017657060D+02
 1\1\GINC-COMPUTE-8-9\SP\RmPW1PW91\6-31+G(d,p)\C6H10O5\MMARCARINO.IQUIR
 \12-Apr-2019\0\\# mpw1pw91/6-31+g** nmr scrf=(pcm,solvent=water)\\comm
 ent\\0,1\C,0,-1.864794,-0.659564,0.710503\C,0,-1.073331,-1.111797,-0.5
 14804\C,0,-0.994845,1.110449,-0.501707\C,0,1.22368,-0.052586,-0.732076
 \C,0,0.545594,1.273646,-0.311464\C,0,0.448733,-1.300552,-0.246485\O,0,
 -1.264148,0.036807,-1.378051\O,0,-1.583145,0.756005,0.759561\O,0,0.696
 711,-1.499466,1.141503\O,0,2.545315,-0.07494,-0.187881\O,0,0.844742,1.
 681166,1.010084\H,0,-1.540604,-1.119784,1.642186\H,0,-2.93865,-0.81324
 9,0.558541\H,0,-1.512158,-1.97124,-1.021743\H,0,-1.477623,2.012397,-0.
 883419\H,0,1.260071,-0.071874,-1.826434\H,0,0.914147,2.06527,-0.971964
 \H,0,0.806107,-2.174721,-0.812136\H,0,1.615351,-1.188678,1.264575\H,0,
 3.061884,-0.717598,-0.70192\H,0,0.185452,1.225324,1.566775\\Version=EM
 64L-G09RevC.01\State=1-A\HF=-610.6417318\RMSD=4.719e-09\Dipole=0.00006
 49,-1.3743753,-1.3514965\Quadrupole=1.6701562,-0.4038355,-1.2663207,-3
 .0555047,-4.8974,-0.7887301\PG=C01 [X(C6H10O5)]\\@


 THE ATTENTION SPAN OF A COMPUTER IS AS LONG
 AS ITS EXTENSION CORD.
 Job cpu time:  0 days  0 hours 16 minutes 10.0 seconds.
 File lengths (MBytes):  RWF=     82 Int=      0 D2E=      0 Chk=      5 Scr=      1
 Normal termination of Gaussian 09 at Fri Apr 12 12:12:12 2019.
