 Entering Gaussian System, Link 0=g09
 Input=/home/mmarcarino.iquir/NMR/06_SSS_Levo07_OPTB_nmr.gjc
 Output=/home/mmarcarino.iquir/NMR/06_SSS_Levo07_OPTB_nmr.log
 Initial command:
 /share/apps/Gaussian09/EM64T.SSE4.2-enabled/g09/l1.exe /tmp/Gau-4663.inp -scrdir=/tmp/
 Entering Link 1 = /share/apps/Gaussian09/EM64T.SSE4.2-enabled/g09/l1.exe PID=      4664.
  
 Copyright (c) 1988,1990,1992,1993,1995,1998,2003,2009,2011,
            Gaussian, Inc.  All Rights Reserved.
  
 This is part of the Gaussian(R) 09 program.  It is based on
 the Gaussian(R) 03 system (copyright 2003, Gaussian, Inc.),
 the Gaussian(R) 98 system (copyright 1998, Gaussian, Inc.),
 the Gaussian(R) 94 system (copyright 1995, Gaussian, Inc.),
 the Gaussian 92(TM) system (copyright 1992, Gaussian, Inc.),
 the Gaussian 90(TM) system (copyright 1990, Gaussian, Inc.),
 the Gaussian 88(TM) system (copyright 1988, Gaussian, Inc.),
 the Gaussian 86(TM) system (copyright 1986, Carnegie Mellon
 University), and the Gaussian 82(TM) system (copyright 1983,
 Carnegie Mellon University). Gaussian is a federally registered
 trademark of Gaussian, Inc.
  
 This software contains proprietary and confidential information,
 including trade secrets, belonging to Gaussian, Inc.
  
 This software is provided under written license and may be
 used, copied, transmitted, or stored only in accord with that
 written license.
  
 The following legend is applicable only to US Government
 contracts under FAR:
  
                    RESTRICTED RIGHTS LEGEND
  
 Use, reproduction and disclosure by the US Government is
 subject to restrictions as set forth in subparagraphs (a)
 and (c) of the Commercial Computer Software - Restricted
 Rights clause in FAR 52.227-19.
  
 Gaussian, Inc.
 340 Quinnipiac St., Bldg. 40, Wallingford CT 06492
  
  
 ---------------------------------------------------------------
 Warning -- This program may not be used in any manner that
 competes with the business of Gaussian, Inc. or will provide
 assistance to any competitor of Gaussian, Inc.  The licensee
 of this program is prohibited from giving any competitor of
 Gaussian, Inc. access to this program.  By using this program,
 the user acknowledges that Gaussian, Inc. is engaged in the
 business of creating and licensing software in the field of
 computational chemistry and represents and warrants to the
 licensee that it is not a competitor of Gaussian, Inc. and that
 it will not use this program in any manner prohibited above.
 ---------------------------------------------------------------
  

 Cite this work as:
 Gaussian 09, Revision C.01,
 M. J. Frisch, G. W. Trucks, H. B. Schlegel, G. E. Scuseria, 
 M. A. Robb, J. R. Cheeseman, G. Scalmani, V. Barone, B. Mennucci, 
 G. A. Petersson, H. Nakatsuji, M. Caricato, X. Li, H. P. Hratchian, 
 A. F. Izmaylov, J. Bloino, G. Zheng, J. L. Sonnenberg, M. Hada, 
 M. Ehara, K. Toyota, R. Fukuda, J. Hasegawa, M. Ishida, T. Nakajima, 
 Y. Honda, O. Kitao, H. Nakai, T. Vreven, J. A. Montgomery, Jr., 
 J. E. Peralta, F. Ogliaro, M. Bearpark, J. J. Heyd, E. Brothers, 
 K. N. Kudin, V. N. Staroverov, T. Keith, R. Kobayashi, J. Normand, 
 K. Raghavachari, A. Rendell, J. C. Burant, S. S. Iyengar, J. Tomasi, 
 M. Cossi, N. Rega, J. M. Millam, M. Klene, J. E. Knox, J. B. Cross, 
 V. Bakken, C. Adamo, J. Jaramillo, R. Gomperts, R. E. Stratmann, 
 O. Yazyev, A. J. Austin, R. Cammi, C. Pomelli, J. W. Ochterski, 
 R. L. Martin, K. Morokuma, V. G. Zakrzewski, G. A. Voth, 
 P. Salvador, J. J. Dannenberg, S. Dapprich, A. D. Daniels, 
 O. Farkas, J. B. Foresman, J. V. Ortiz, J. Cioslowski, 
 and D. J. Fox, Gaussian, Inc., Wallingford CT, 2010.
 
 ******************************************
 Gaussian 09:  EM64L-G09RevC.01 23-Sep-2011
                12-Apr-2019 
 ******************************************
 %nprocshared=4
 Will use up to    4 processors via shared memory.
 ------------------------------------------------
 # mpw1pw91/6-31+g** nmr scrf=(pcm,solvent=water)
 ------------------------------------------------
 1/38=1/1;
 2/12=2,17=6,18=5,40=1/2;
 3/5=1,6=6,7=111,11=2,16=1,25=1,30=1,70=2201,72=1,74=-7/1,2,8,3;
 4//1;
 5/5=2,38=5,53=1/2;
 8/6=1,10=90,11=11/1;
 10/13=100,45=16/2;
 6/7=2,8=2,9=2,10=2,28=1/1;
 99/9=1/99;
 -------
 comment
 -------
 Charge =  0 Multiplicity = 1
 Symbolic Z-Matrix:
 6                    -0.99635   1.20922   1.09146 
 6                    -1.2944    0.85351  -0.35949 
 6                     0.90052   1.19802  -0.25389 
 6                     0.24196  -1.21553  -0.33011 
 6                     1.35547  -0.20418  -0.69846 
 6                    -1.15642  -0.65104  -0.68723 
 8                    -0.22769   1.55987  -1.02511 
 8                     0.45351   1.17938   1.12425 
 8                    -2.13553  -1.43424  -0.01946 
 8                     0.39428  -1.57661   1.04838 
 8                     2.59089  -0.58855  -0.12279 
 1                    -1.39283   0.48975   1.81134 
 1                    -1.34899   2.21495   1.34105 
 1                    -2.24459   1.25186  -0.72169 
 1                     1.68181   1.95295  -0.37091 
 1                     0.3849   -2.15179  -0.87724 
 1                     1.49096  -0.16146  -1.78499 
 1                    -1.25874  -0.73943  -1.77833 
 1                    -2.98974  -1.26534  -0.44899 
 1                     0.41503  -0.73752   1.54809 
 1                     2.35394  -1.11274   0.66579 
 
                          Input orientation:                          
 ---------------------------------------------------------------------
 Center     Atomic      Atomic             Coordinates (Angstroms)
 Number     Number       Type             X           Y           Z
 ---------------------------------------------------------------------
      1          6           0       -0.996353    1.209225    1.091457
      2          6           0       -1.294404    0.853507   -0.359488
      3          6           0        0.900516    1.198015   -0.253891
      4          6           0        0.241957   -1.215532   -0.330110
      5          6           0        1.355468   -0.204176   -0.698460
      6          6           0       -1.156423   -0.651035   -0.687234
      7          8           0       -0.227686    1.559867   -1.025106
      8          8           0        0.453509    1.179376    1.124251
      9          8           0       -2.135532   -1.434244   -0.019459
     10          8           0        0.394281   -1.576606    1.048384
     11          8           0        2.590888   -0.588551   -0.122790
     12          1           0       -1.392830    0.489753    1.811343
     13          1           0       -1.348992    2.214946    1.341045
     14          1           0       -2.244585    1.251860   -0.721693
     15          1           0        1.681808    1.952951   -0.370906
     16          1           0        0.384904   -2.151793   -0.877238
     17          1           0        1.490957   -0.161458   -1.784994
     18          1           0       -1.258739   -0.739430   -1.778326
     19          1           0       -2.989744   -1.265340   -0.448988
     20          1           0        0.415031   -0.737516    1.548085
     21          1           0        2.353941   -1.112741    0.665786
 ---------------------------------------------------------------------
                    Distance matrix (angstroms):
                    1          2          3          4          5
     1  C    0.000000
     2  C    1.523355   0.000000
     3  C    2.325553   2.224300   0.000000
     4  C    3.071435   2.577245   2.502942   0.000000
     5  C    3.276060   2.873224   1.539728   1.548686   0.000000
     6  C    2.578746   1.545996   2.799602   1.549729   2.551354
     7  O    2.278955   1.442179   1.413701   2.899383   2.392681
     8  O    1.450540   2.315788   1.448944   2.809894   2.459679
     9  O    3.085416   2.461081   4.025088   2.407653   3.763136
    10  O    3.113932   3.277073   3.106560   1.433116   2.420518
    11  O    4.192218   4.151030   2.462999   2.439993   1.416122
    12  H    1.092277   2.203296   3.166427   3.188471   3.785999
    13  H    1.094588   2.179061   2.939091   4.134254   4.162431
    14  H    2.201684   1.092118   3.180157   3.524805   3.883421
    15  H    3.140729   3.172813   1.092720   3.480534   2.206125
    16  H    4.132804   3.481375   3.446104   1.093786   2.183385
    17  H    4.042209   3.289446   2.130977   2.188095   1.095782
    18  H    3.478758   2.133500   3.277190   2.139180   2.878660
    19  H    3.531296   2.715088   4.608720   3.234270   4.479863
    20  H    2.447512   3.015354   2.688697   1.945783   2.493158
    21  H    4.098438   4.269396   2.880598   2.337274   1.919272
                    6          7          8          9         10
     6  C    0.000000
     7  O    2.421734   0.000000
     8  O    3.037065   2.286599   0.000000
     9  O    1.420561   3.689973   3.852560   0.000000
    10  O    2.504742   3.810993   2.757662   2.749638   0.000000
    11  O    3.790098   3.657080   3.041228   4.802595   2.678243
    12  H    2.756841   3.247791   2.087257   2.757754   2.836496
    13  H    3.516368   2.699097   2.090075   3.973186   4.183362
    14  H    2.192326   2.062719   3.269935   2.778521   4.254058
    15  H    3.864759   2.056371   2.083898   5.115534   4.016202
    16  H    2.159645   3.764778   3.886818   2.757401   2.009713
    17  H    2.907470   2.548357   3.367171   4.229482   3.351622
    18  H    1.099438   2.630053   3.877959   2.084501   3.379886
    19  H    1.948127   3.992827   4.506407   0.970928   3.713574
    20  H    2.733788   3.508898   1.963566   3.073759   0.976833
    21  H    3.790315   4.082493   3.012579   4.552833   2.049834
                   11         12         13         14         15
    11  O    0.000000
    12  H    4.557809   0.000000
    13  H    5.052233   1.788685   0.000000
    14  H    5.208416   2.778950   2.446326   0.000000
    15  H    2.710576   4.044324   3.490726   4.003891   0.000000
    16  H    2.807006   4.167322   5.195728   4.303866   4.334427
    17  H    2.038426   4.655528   4.846104   4.133080   2.550842
    18  H    4.193232   3.796656   4.297320   2.460407   4.228068
    19  H    5.630977   3.277130   4.243663   2.639304   5.673349
    20  H    2.747429   2.200876   3.445530   4.022818   3.539190
    21  H    0.976100   4.233034   5.024061   5.353772   3.305293
                   16         17         18         19         20
    16  H    0.000000
    17  H    2.451287   0.000000
    18  H    2.346975   2.809791   0.000000
    19  H    3.515316   4.804180   2.245017   0.000000
    20  H    2.807718   3.549489   3.723778   3.982385   0.000000
    21  H    2.708811   2.766948   4.377728   5.460859   2.163011
                   21
    21  H    0.000000
 Stoichiometry    C6H10O5
 Framework group  C1[X(C6H10O5)]
 Deg. of freedom    57
 Full point group                 C1      NOp   1
 Largest Abelian subgroup         C1      NOp   1
 Largest concise Abelian subgroup C1      NOp   1
                         Standard orientation:                         
 ---------------------------------------------------------------------
 Center     Atomic      Atomic             Coordinates (Angstroms)
 Number     Number       Type             X           Y           Z
 ---------------------------------------------------------------------
      1          6           0       -0.996353    1.209225    1.091457
      2          6           0       -1.294404    0.853507   -0.359488
      3          6           0        0.900516    1.198015   -0.253891
      4          6           0        0.241957   -1.215532   -0.330110
      5          6           0        1.355468   -0.204176   -0.698460
      6          6           0       -1.156423   -0.651035   -0.687234
      7          8           0       -0.227686    1.559867   -1.025106
      8          8           0        0.453509    1.179376    1.124251
      9          8           0       -2.135532   -1.434244   -0.019459
     10          8           0        0.394281   -1.576606    1.048384
     11          8           0        2.590888   -0.588550   -0.122790
     12          1           0       -1.392830    0.489753    1.811343
     13          1           0       -1.348993    2.214946    1.341045
     14          1           0       -2.244585    1.251859   -0.721693
     15          1           0        1.681808    1.952952   -0.370906
     16          1           0        0.384905   -2.151793   -0.877238
     17          1           0        1.490957   -0.161458   -1.784994
     18          1           0       -1.258739   -0.739430   -1.778326
     19          1           0       -2.989744   -1.265341   -0.448988
     20          1           0        0.415031   -0.737516    1.548085
     21          1           0        2.353941   -1.112740    0.665786
 ---------------------------------------------------------------------
 Rotational constants (GHZ):      1.5516926      1.2693633      0.9653894
 Standard basis: 6-31+G(d,p) (6D, 7F)
 There are   259 symmetry adapted basis functions of A   symmetry.
 Integral buffers will be    131072 words long.
 Raffenetti 2 integral format.
 Two-electron integral symmetry is turned on.
   259 basis functions,   422 primitive gaussians,   259 cartesian basis functions
    43 alpha electrons       43 beta electrons
       nuclear repulsion energy       734.8431277211 Hartrees.
 NAtoms=   21 NActive=   21 NUniq=   21 SFac= 1.00D+00 NAtFMM=   60 NAOKFM=F Big=F
 ------------------------------------------------------------------------------
 Polarizable Continuum Model (PCM)
 =================================
 Model                : PCM.
 Atomic radii         : UFF (Universal Force Field).
 Polarization charges : Total charges.
 Charge compensation  : None.
 Solution method      : Matrix inversion.
 Cavity type          : Scaled VdW (van der Waals Surface) (Alpha=1.100).
 Cavity algorithm     : GePol (No added spheres)
                        Default sphere list used, NSphG=   21.
                        Lebedev-Laikov grids with approx.  5.0 points / Ang**2.
                        Smoothing algorithm: Karplus/York (Gamma=1.0000).
                        Polarization charges: spherical gaussians, with
                                              point-specific exponents (IZeta= 3).
                        Self-potential: point-specific (ISelfS= 7).
                        Self-field    : sphere-specific E.n sum rule (ISelfD= 2).
 Solvent              : Water, Eps=  78.355300 Eps(inf)=   1.777849
 ------------------------------------------------------------------------------
 One-electron integrals computed using PRISM.
 NBasis=   259 RedAO= T  NBF=   259
 NBsUse=   259 1.00D-06 NBFU=   259
 Harris functional with IExCor=  908 diagonalized for initial guess.
 ExpMin= 4.38D-02 ExpMax= 5.48D+03 ExpMxC= 8.25D+02 IAcc=2 IRadAn=         4 AccDes= 0.00D+00
 HarFok:  IExCor=  908 AccDes= 0.00D+00 IRadAn=         4 IDoV= 1
 ScaDFX=  1.000000  1.000000  1.000000  1.000000
 FoFCou: FMM=F IPFlag=           0 FMFlag=      100000 FMFlg1=           0
         NFxFlg=           0 DoJE=T BraDBF=F KetDBF=T FulRan=T
         Omega=  0.000000  0.000000  1.000000  0.000000  0.000000 ICntrl=     500 IOpCl=  0
         NMat0=    1 NMatS0=    1 NMatT0=    0 NMatD0=    1 NMtDS0=    0 NMtDT0=    0
         I1Cent=           4 NGrid=           0.
 Petite list used in FoFCou.
 Initial guess orbital symmetries:
       Occupied  (A) (A) (A) (A) (A) (A) (A) (A) (A) (A) (A) (A)
                 (A) (A) (A) (A) (A) (A) (A) (A) (A) (A) (A) (A)
                 (A) (A) (A) (A) (A) (A) (A) (A) (A) (A) (A) (A)
                 (A) (A) (A) (A) (A) (A) (A)
       Virtual   (A) (A) (A) (A) (A) (A) (A) (A) (A) (A) (A) (A)
                 (A) (A) (A) (A) (A) (A) (A) (A) (A) (A) (A) (A)
                 (A) (A) (A) (A) (A) (A) (A) (A) (A) (A) (A) (A)
                 (A) (A) (A) (A) (A) (A) (A) (A) (A) (A) (A) (A)
                 (A) (A) (A) (A) (A) (A) (A) (A) (A) (A) (A) (A)
                 (A) (A) (A) (A) (A) (A) (A) (A) (A) (A) (A) (A)
                 (A) (A) (A) (A) (A) (A) (A) (A) (A) (A) (A) (A)
                 (A) (A) (A) (A) (A) (A) (A) (A) (A) (A) (A) (A)
                 (A) (A) (A) (A) (A) (A) (A) (A) (A) (A) (A) (A)
                 (A) (A) (A) (A) (A) (A) (A) (A) (A) (A) (A) (A)
                 (A) (A) (A) (A) (A) (A) (A) (A) (A) (A) (A) (A)
                 (A) (A) (A) (A) (A) (A) (A) (A) (A) (A) (A) (A)
                 (A) (A) (A) (A) (A) (A) (A) (A) (A) (A) (A) (A)
                 (A) (A) (A) (A) (A) (A) (A) (A) (A) (A) (A) (A)
                 (A) (A) (A) (A) (A) (A) (A) (A) (A) (A) (A) (A)
                 (A) (A) (A) (A) (A) (A) (A) (A) (A) (A) (A) (A)
                 (A) (A) (A) (A) (A) (A) (A) (A) (A) (A) (A) (A)
                 (A) (A) (A) (A) (A) (A) (A) (A) (A) (A) (A) (A)
 The electronic state of the initial guess is 1-A.
 Requested convergence on RMS density matrix=1.00D-08 within 128 cycles.
 Requested convergence on MAX density matrix=1.00D-06.
 Requested convergence on             energy=1.00D-06.
 No special actions if energy rises.
 Error on total polarization charges =  0.01142
 SCF Done:  E(RmPW1PW91) =  -610.647483172     A.U. after   12 cycles
             Convg  =    0.8534D-08             -V/T =  2.0090
 Range of M.O.s used for correlation:     1   259
 NBasis=   259 NAE=    43 NBE=    43 NFC=     0 NFV=     0
 NROrb=    259 NOA=    43 NOB=    43 NVA=   216 NVB=   216

 **** Warning!!: The largest alpha MO coefficient is  0.70021399D+02

 NEqPCM:  Using equilibrium solvation (IEInf=0, Eps=  78.3553, EpsInf=   1.7778)
          Differentiating once with respect to magnetic field using GIAOs.
          Electric field/nuclear overlap derivatives assumed to be zero.
 FoFCou: FMM=F IPFlag=           0 FMFlag=    10101102 FMFlg1=           0
         NFxFlg=    40000000 DoJE=F BraDBF=F KetDBF=T FulRan=T
         Omega=  0.000000  0.000000  1.000000  0.000000  0.000000 ICntrl=    6100 IOpCl=  0
         NMat0=    1 NMatS0=    1 NMatT0=    0 NMatD0=    1 NMtDS0=    0 NMtDT0=    0
         I1Cent=           7 NGrid=        1518.
 Symmetry not used in FoFCou.
          There are     3 degrees of freedom in the 1st order CPHF.  IDoFFX=0.
      3 vectors produced by pass  0 Test12= 3.10D-13 3.33D-08 XBig12= 2.08D+01 8.41D-01.
 AX will form     3 AO Fock derivatives at one time.
      3 vectors produced by pass  1 Test12= 3.10D-13 3.33D-08 XBig12= 4.64D-02 2.52D-02.
      3 vectors produced by pass  2 Test12= 3.10D-13 3.33D-08 XBig12= 8.22D-05 1.45D-03.
      3 vectors produced by pass  3 Test12= 3.10D-13 3.33D-08 XBig12= 3.51D-07 1.02D-04.
      3 vectors produced by pass  4 Test12= 3.10D-13 3.33D-08 XBig12= 1.18D-09 5.31D-06.
      3 vectors produced by pass  5 Test12= 3.10D-13 3.33D-08 XBig12= 3.93D-12 3.61D-07.
 Inverted reduced A of dimension    18 with in-core refinement.
 Calculating GIAO nuclear magnetic shielding tensors.
 SCF GIAO Magnetic shielding tensor (ppm):
      1  C    Isotropic =   130.1460   Anisotropy =    64.9601
   XX=   172.7463   YX=     0.0707   ZX=     9.6873
   XY=    -4.3328   YY=   101.4552   ZY=    11.1609
   XZ=     2.7771   YZ=     2.2192   ZZ=   116.2366
   Eigenvalues:    98.6314   118.3539   173.4528
      2  C    Isotropic =   117.8999   Anisotropy =    56.9266
   XX=   125.7691   YX=    20.5556   ZX=   -24.3032
   XY=    33.6106   YY=   112.7110   ZY=    -4.4281
   XZ=   -13.2447   YZ=    -8.3437   ZZ=   115.2198
   Eigenvalues:    89.2013   108.6475   155.8510
      3  C    Isotropic =    90.6057   Anisotropy =    28.3979
   XX=    90.7968   YX=    -8.0505   ZX=     5.0189
   XY=   -16.5196   YY=    71.5536   ZY=    -0.0270
   XZ=    -6.7664   YZ=    -3.0239   ZZ=   109.4666
   Eigenvalues:    65.5008    96.7786   109.5377
      4  C    Isotropic =   121.8297   Anisotropy =    35.7209
   XX=   119.5245   YX=    -1.4038   ZX=     2.6560
   XY=     0.5384   YY=   102.7583   ZY=   -14.2757
   XZ=    -0.2305   YZ=    -5.8927   ZZ=   143.2062
   Eigenvalues:   100.3826   119.4629   145.6436
      5  C    Isotropic =   124.9593   Anisotropy =    42.4505
   XX=   135.2762   YX=   -14.0673   ZX=    14.7899
   XY=   -19.1122   YY=   122.0845   ZY=     1.7043
   XZ=    21.5177   YZ=    -1.4622   ZZ=   117.5172
   Eigenvalues:   101.3668   120.2515   153.2597
      6  C    Isotropic =   127.1274   Anisotropy =    45.8862
   XX=   131.6323   YX=    14.7270   ZX=   -15.3886
   XY=    18.1855   YY=   132.1683   ZY=    -5.5435
   XZ=   -20.2785   YZ=   -13.1326   ZZ=   117.5817
   Eigenvalues:   105.3045   118.3595   157.7182
      7  O    Isotropic =   232.6769   Anisotropy =    73.5985
   XX=   241.5940   YX=   -11.7287   ZX=    -2.9350
   XY=   -11.5510   YY=   178.2181   ZY=   -14.3459
   XZ=   -16.7164   YZ=   -12.5268   ZZ=   278.2186
   Eigenvalues:   173.9878   242.3003   281.7426
      8  O    Isotropic =   266.4575   Anisotropy =    98.6471
   XX=   294.1877   YX=    -1.7929   ZX=     0.9567
   XY=   -10.2054   YY=   174.5404   ZY=    -9.1009
   XZ=    12.4334   YZ=    -4.6081   ZZ=   330.6445
   Eigenvalues:   173.9690   293.1813   332.2223
      9  O    Isotropic =   301.9101   Anisotropy =    60.0243
   XX=   339.9007   YX=     9.0027   ZX=     3.6029
   XY=    -2.0436   YY=   290.4033   ZY=     0.7164
   XZ=    17.9353   YZ=     3.3269   ZZ=   275.4262
   Eigenvalues:   273.5510   290.2530   341.9263
     10  O    Isotropic =   314.9195   Anisotropy =    95.1394
   XX=   277.1627   YX=     2.0132   ZX=   -24.0303
   XY=     1.8149   YY=   344.0324   ZY=    68.8571
   XZ=     8.9304   YZ=    17.6486   ZZ=   323.5636
   Eigenvalues:   273.8132   292.5996   378.3458
     11  O    Isotropic =   308.0488   Anisotropy =    31.1996
   XX=   318.3341   YX=    -4.4253   ZX=     3.4179
   XY=   -12.7147   YY=   318.8228   ZY=   -19.9595
   XZ=    -8.2424   YZ=    -6.3863   ZZ=   286.9895
   Eigenvalues:   281.4935   313.8044   328.8485
     12  H    Isotropic =    27.1697   Anisotropy =     6.2293
   XX=    28.0016   YX=     1.2685   ZX=    -4.0662
   XY=     0.3300   YY=    25.6925   ZY=    -0.5330
   XZ=    -2.6558   YZ=     0.6327   ZZ=    27.8151
   Eigenvalues:    24.2880    25.8985    31.3226
     13  H    Isotropic =    27.7602   Anisotropy =    11.6907
   XX=    29.1361   YX=    -5.1824   ZX=    -2.0919
   XY=    -4.2781   YY=    29.2586   ZY=     4.6467
   XZ=    -1.4332   YZ=     3.4522   ZZ=    24.8859
   Eigenvalues:    22.2750    25.4516    35.5540
     14  H    Isotropic =    27.2275   Anisotropy =     7.4603
   XX=    30.8337   YX=    -1.6389   ZX=     3.0370
   XY=    -1.6479   YY=    26.3004   ZY=    -1.0798
   XZ=     1.4464   YZ=    -1.4343   ZZ=    24.5484
   Eigenvalues:    23.6116    25.8699    32.2011
     15  H    Isotropic =    26.1521   Anisotropy =     7.4825
   XX=    27.4972   YX=     2.8006   ZX=    -1.2832
   XY=     3.7942   YY=    26.8430   ZY=    -1.0949
   XZ=    -1.8620   YZ=    -1.8312   ZZ=    24.1160
   Eigenvalues:    23.4574    23.8584    31.1404
     16  H    Isotropic =    27.4353   Anisotropy =     8.5733
   XX=    24.5089   YX=    -1.3034   ZX=     0.1174
   XY=    -0.6584   YY=    28.2869   ZY=     3.2149
   XZ=     0.1294   YZ=     5.1305   ZZ=    29.5102
   Eigenvalues:    23.7498    25.4053    33.1509
     17  H    Isotropic =    27.9930   Anisotropy =     6.0987
   XX=    28.4677   YX=    -2.5303   ZX=    -0.6371
   XY=    -1.8541   YY=    24.2144   ZY=     0.5313
   XZ=    -2.4265   YZ=    -0.7213   ZZ=    31.2970
   Eigenvalues:    23.2265    28.6938    32.0588
     18  H    Isotropic =    27.5635   Anisotropy =     5.7799
   XX=    26.1997   YX=     2.0314   ZX=     0.2278
   XY=     1.9463   YY=    25.5387   ZY=     0.5667
   XZ=     2.1945   YZ=     0.4481   ZZ=    30.9522
   Eigenvalues:    23.8298    27.4440    31.4168
     19  H    Isotropic =    29.7304   Anisotropy =    20.5027
   XX=    41.3719   YX=     1.5717   ZX=     6.5430
   XY=     1.8597   YY=    23.5550   ZY=    -2.3464
   XZ=     5.7436   YZ=    -1.8964   ZZ=    24.2642
   Eigenvalues:    20.2820    25.5103    43.3989
     20  H    Isotropic =    28.5510   Anisotropy =    19.3941
   XX=    17.6875   YX=    -1.6136   ZX=     1.4414
   XY=    -0.6649   YY=    38.4647   ZY=     5.7442
   XZ=     0.7871   YZ=     6.2486   ZZ=    29.5010
   Eigenvalues:    17.4260    26.7466    41.4805
     21  H    Isotropic =    28.0569   Anisotropy =    15.5933
   XX=    28.5474   YX=     0.8171   ZX=    -1.8840
   XY=     1.7420   YY=    24.6594   ZY=   -10.0312
   XZ=    -1.3142   YZ=    -9.4084   ZZ=    30.9638
   Eigenvalues:    17.5926    28.1257    38.4524
 End of Minotr Frequency-dependent properties file   721 does not exist.
 End of Minotr Frequency-dependent properties file   722 does not exist.

 **********************************************************************

            Population analysis using the SCF density.

 **********************************************************************

 Orbital symmetries:
       Occupied  (A) (A) (A) (A) (A) (A) (A) (A) (A) (A) (A) (A)
                 (A) (A) (A) (A) (A) (A) (A) (A) (A) (A) (A) (A)
                 (A) (A) (A) (A) (A) (A) (A) (A) (A) (A) (A) (A)
                 (A) (A) (A) (A) (A) (A) (A)
       Virtual   (A) (A) (A) (A) (A) (A) (A) (A) (A) (A) (A) (A)
                 (A) (A) (A) (A) (A) (A) (A) (A) (A) (A) (A) (A)
                 (A) (A) (A) (A) (A) (A) (A) (A) (A) (A) (A) (A)
                 (A) (A) (A) (A) (A) (A) (A) (A) (A) (A) (A) (A)
                 (A) (A) (A) (A) (A) (A) (A) (A) (A) (A) (A) (A)
                 (A) (A) (A) (A) (A) (A) (A) (A) (A) (A) (A) (A)
                 (A) (A) (A) (A) (A) (A) (A) (A) (A) (A) (A) (A)
                 (A) (A) (A) (A) (A) (A) (A) (A) (A) (A) (A) (A)
                 (A) (A) (A) (A) (A) (A) (A) (A) (A) (A) (A) (A)
                 (A) (A) (A) (A) (A) (A) (A) (A) (A) (A) (A) (A)
                 (A) (A) (A) (A) (A) (A) (A) (A) (A) (A) (A) (A)
                 (A) (A) (A) (A) (A) (A) (A) (A) (A) (A) (A) (A)
                 (A) (A) (A) (A) (A) (A) (A) (A) (A) (A) (A) (A)
                 (A) (A) (A) (A) (A) (A) (A) (A) (A) (A) (A) (A)
                 (A) (A) (A) (A) (A) (A) (A) (A) (A) (A) (A) (A)
                 (A) (A) (A) (A) (A) (A) (A) (A) (A) (A) (A) (A)
                 (A) (A) (A) (A) (A) (A) (A) (A) (A) (A) (A) (A)
                 (A) (A) (A) (A) (A) (A) (A) (A) (A) (A) (A) (A)
 The electronic state is 1-A.
 Alpha  occ. eigenvalues --  -19.28278 -19.27970 -19.26790 -19.26530 -19.26149
 Alpha  occ. eigenvalues --  -10.36131 -10.32035 -10.31990 -10.31927 -10.31382
 Alpha  occ. eigenvalues --  -10.31080  -1.14755  -1.08823  -1.07325  -1.05286
 Alpha  occ. eigenvalues --   -1.04414  -0.82426  -0.81228  -0.70910  -0.68659
 Alpha  occ. eigenvalues --   -0.64866  -0.61991  -0.58434  -0.55883  -0.53223
 Alpha  occ. eigenvalues --   -0.52311  -0.50405  -0.49087  -0.48953  -0.46553
 Alpha  occ. eigenvalues --   -0.45036  -0.43966  -0.42181  -0.40160  -0.39633
 Alpha  occ. eigenvalues --   -0.38366  -0.36622  -0.35747  -0.34274  -0.32562
 Alpha  occ. eigenvalues --   -0.31171  -0.29706  -0.27568
 Alpha virt. eigenvalues --    0.00110   0.01973   0.02176   0.02437   0.04347
 Alpha virt. eigenvalues --    0.04464   0.04805   0.05215   0.05581   0.08282
 Alpha virt. eigenvalues --    0.08901   0.09367   0.10261   0.10650   0.11665
 Alpha virt. eigenvalues --    0.12151   0.12784   0.13023   0.13832   0.14583
 Alpha virt. eigenvalues --    0.15019   0.15629   0.16095   0.17003   0.17259
 Alpha virt. eigenvalues --    0.17633   0.18515   0.19632   0.20179   0.20632
 Alpha virt. eigenvalues --    0.21567   0.22080   0.22697   0.23296   0.23949
 Alpha virt. eigenvalues --    0.24165   0.24981   0.25392   0.26499   0.26748
 Alpha virt. eigenvalues --    0.27251   0.28661   0.29159   0.29759   0.30672
 Alpha virt. eigenvalues --    0.31108   0.31918   0.32589   0.33970   0.34385
 Alpha virt. eigenvalues --    0.34906   0.35093   0.35290   0.36889   0.37041
 Alpha virt. eigenvalues --    0.37380   0.38551   0.38843   0.39595   0.40473
 Alpha virt. eigenvalues --    0.42410   0.42737   0.43695   0.46986   0.49826
 Alpha virt. eigenvalues --    0.52028   0.65146   0.65902   0.66922   0.69280
 Alpha virt. eigenvalues --    0.70028   0.71691   0.73006   0.74990   0.75341
 Alpha virt. eigenvalues --    0.78818   0.81265   0.83090   0.84246   0.86414
 Alpha virt. eigenvalues --    0.87085   0.92923   0.95148   0.97425   1.00101
 Alpha virt. eigenvalues --    1.01257   1.03421   1.05453   1.07587   1.08107
 Alpha virt. eigenvalues --    1.10095   1.10690   1.11494   1.12956   1.14600
 Alpha virt. eigenvalues --    1.19235   1.20767   1.23553   1.25876   1.26265
 Alpha virt. eigenvalues --    1.28193   1.30861   1.31109   1.31599   1.33169
 Alpha virt. eigenvalues --    1.35609   1.36631   1.38385   1.40579   1.41447
 Alpha virt. eigenvalues --    1.43881   1.45159   1.47577   1.48302   1.51085
 Alpha virt. eigenvalues --    1.52148   1.55101   1.57302   1.59289   1.60709
 Alpha virt. eigenvalues --    1.62988   1.63399   1.65669   1.67938   1.68029
 Alpha virt. eigenvalues --    1.69108   1.71992   1.74934   1.76356   1.78249
 Alpha virt. eigenvalues --    1.79353   1.81225   1.85177   1.87598   1.89388
 Alpha virt. eigenvalues --    1.92788   1.93928   1.94873   1.95891   1.97759
 Alpha virt. eigenvalues --    1.98873   2.03922   2.05236   2.06936   2.08397
 Alpha virt. eigenvalues --    2.11007   2.12054   2.12801   2.14599   2.16197
 Alpha virt. eigenvalues --    2.18259   2.21084   2.25561   2.27525   2.28812
 Alpha virt. eigenvalues --    2.32790   2.34417   2.36987   2.37800   2.43318
 Alpha virt. eigenvalues --    2.45283   2.46366   2.49773   2.50648   2.52043
 Alpha virt. eigenvalues --    2.54001   2.57335   2.60092   2.62982   2.63669
 Alpha virt. eigenvalues --    2.64740   2.66179   2.67998   2.68500   2.70052
 Alpha virt. eigenvalues --    2.71646   2.73484   2.76637   2.77883   2.81256
 Alpha virt. eigenvalues --    2.84007   2.84919   2.86444   2.90654   2.91417
 Alpha virt. eigenvalues --    2.93749   2.96695   2.96703   3.00193   3.03550
 Alpha virt. eigenvalues --    3.06302   3.07687   3.13222   3.14279   3.16005
 Alpha virt. eigenvalues --    3.35339   3.44343   3.46418   3.47068   3.47821
 Alpha virt. eigenvalues --    3.51133   3.52598   3.55916   3.58627   3.65270
 Alpha virt. eigenvalues --    4.26158   4.40236   4.41118   4.49115   4.50914
 Alpha virt. eigenvalues --    4.54468   4.64395   4.83801   4.90594   4.92472
 Alpha virt. eigenvalues --    4.97210
          Condensed to atoms (all electrons):
              1          2          3          4          5          6
     1  C    5.958854  -0.441179  -0.481944  -0.505342   0.525679   0.109300
     2  C   -0.441179   6.798849  -0.196579   0.522787  -0.479717  -0.431903
     3  C   -0.481944  -0.196579   7.192316   0.451130  -1.716924   0.230842
     4  C   -0.505342   0.522787   0.451130   7.275700  -1.185463  -0.787579
     5  C    0.525679  -0.479717  -1.716924  -1.185463   8.121474   0.061669
     6  C    0.109300  -0.431903   0.230842  -0.787579   0.061669   6.530581
     7  O   -0.013623   0.079445   0.276399  -0.055338  -0.023615  -0.073337
     8  O    0.034878   0.007203   0.218478   0.064947  -0.180860  -0.042030
     9  O    0.042635  -0.150621  -0.029307  -0.183283   0.080112   0.278598
    10  O    0.033239  -0.030830  -0.092223   0.106502   0.094240  -0.059709
    11  O    0.017288  -0.007728  -0.171550  -0.050337   0.304560   0.017904
    12  H    0.490373  -0.152480   0.012655  -0.030157   0.018271   0.019168
    13  H    0.351315   0.006597  -0.006407   0.007388  -0.004671   0.021276
    14  H   -0.000116   0.292607  -0.005126  -0.013579   0.017950   0.045777
    15  H   -0.006583   0.041760   0.333600   0.034003  -0.020303  -0.005974
    16  H    0.001058  -0.001225   0.020423   0.334143  -0.016898   0.016506
    17  H   -0.004781   0.005262  -0.073264  -0.073956   0.476439  -0.013573
    18  H    0.012396  -0.001649  -0.013104   0.009391   0.002134   0.296581
    19  H   -0.011929  -0.017451   0.003852   0.015524  -0.008484   0.028817
    20  H   -0.002350  -0.006128   0.041744   0.008321  -0.039458  -0.002369
    21  H   -0.000546  -0.005215  -0.009271  -0.078453   0.046837   0.016620
              7          8          9         10         11         12
     1  C   -0.013623   0.034878   0.042635   0.033239   0.017288   0.490373
     2  C    0.079445   0.007203  -0.150621  -0.030830  -0.007728  -0.152480
     3  C    0.276399   0.218478  -0.029307  -0.092223  -0.171550   0.012655
     4  C   -0.055338   0.064947  -0.183283   0.106502  -0.050337  -0.030157
     5  C   -0.023615  -0.180860   0.080112   0.094240   0.304560   0.018271
     6  C   -0.073337  -0.042030   0.278598  -0.059709   0.017904   0.019168
     7  O    8.238925  -0.066875   0.016825   0.002237   0.008405   0.013838
     8  O   -0.066875   8.485107  -0.013776   0.016581   0.016612  -0.053897
     9  O    0.016825  -0.013776   8.292790   0.003783  -0.000216   0.009749
    10  O    0.002237   0.016581   0.003783   8.275272  -0.033796  -0.000061
    11  O    0.008405   0.016612  -0.000216  -0.033796   8.232396   0.000008
    12  H    0.013838  -0.053897   0.009749  -0.000061   0.000008   0.509351
    13  H   -0.006167  -0.039002  -0.001530  -0.000169   0.000019  -0.031678
    14  H   -0.030587   0.006666  -0.003082  -0.000047   0.000034   0.001937
    15  H   -0.042990  -0.044994  -0.000055  -0.001163   0.002087  -0.000210
    16  H   -0.001006   0.000862   0.000508  -0.053485   0.000766  -0.000026
    17  H    0.000242   0.013029  -0.000632   0.011490  -0.058951  -0.000001
    18  H    0.004689  -0.001210  -0.033394   0.006555   0.000058   0.000157
    19  H   -0.000092   0.000038   0.234951   0.000080   0.000017  -0.000082
    20  H   -0.001054   0.021958  -0.002383   0.251217  -0.006392   0.000142
    21  H   -0.000281   0.001262  -0.000175   0.050365   0.242787   0.000027
             13         14         15         16         17         18
     1  C    0.351315  -0.000116  -0.006583   0.001058  -0.004781   0.012396
     2  C    0.006597   0.292607   0.041760  -0.001225   0.005262  -0.001649
     3  C   -0.006407  -0.005126   0.333600   0.020423  -0.073264  -0.013104
     4  C    0.007388  -0.013579   0.034003   0.334143  -0.073956   0.009391
     5  C   -0.004671   0.017950  -0.020303  -0.016898   0.476439   0.002134
     6  C    0.021276   0.045777  -0.005974   0.016506  -0.013573   0.296581
     7  O   -0.006167  -0.030587  -0.042990  -0.001006   0.000242   0.004689
     8  O   -0.039002   0.006666  -0.044994   0.000862   0.013029  -0.001210
     9  O   -0.001530  -0.003082  -0.000055   0.000508  -0.000632  -0.033394
    10  O   -0.000169  -0.000047  -0.001163  -0.053485   0.011490   0.006555
    11  O    0.000019   0.000034   0.002087   0.000766  -0.058951   0.000058
    12  H   -0.031678   0.001937  -0.000210  -0.000026  -0.000001   0.000157
    13  H    0.519743  -0.002325   0.000584   0.000003   0.000014  -0.000125
    14  H   -0.002325   0.495927   0.000032  -0.000110  -0.000018  -0.007106
    15  H    0.000584   0.000032   0.525186  -0.000131  -0.002736  -0.000055
    16  H    0.000003  -0.000110  -0.000131   0.519971  -0.003975  -0.005617
    17  H    0.000014  -0.000018  -0.002736  -0.003975   0.526986   0.000888
    18  H   -0.000125  -0.007106  -0.000055  -0.005617   0.000888   0.548420
    19  H   -0.000010   0.002000   0.000000  -0.000121  -0.000001  -0.008681
    20  H    0.000281  -0.000070  -0.000027   0.005640  -0.000375  -0.000195
    21  H   -0.000001   0.000001  -0.000294  -0.000737   0.005617  -0.000034
             19         20         21
     1  C   -0.011929  -0.002350  -0.000546
     2  C   -0.017451  -0.006128  -0.005215
     3  C    0.003852   0.041744  -0.009271
     4  C    0.015524   0.008321  -0.078453
     5  C   -0.008484  -0.039458   0.046837
     6  C    0.028817  -0.002369   0.016620
     7  O   -0.000092  -0.001054  -0.000281
     8  O    0.000038   0.021958   0.001262
     9  O    0.234951  -0.002383  -0.000175
    10  O    0.000080   0.251217   0.050365
    11  O    0.000017  -0.006392   0.242787
    12  H   -0.000082   0.000142   0.000027
    13  H   -0.000010   0.000281  -0.000001
    14  H    0.002000  -0.000070   0.000001
    15  H    0.000000  -0.000027  -0.000294
    16  H   -0.000121   0.005640  -0.000737
    17  H   -0.000001  -0.000375   0.005617
    18  H   -0.008681  -0.000195  -0.000034
    19  H    0.363209  -0.000039   0.000000
    20  H   -0.000039   0.317924  -0.003610
    21  H    0.000000  -0.003610   0.352437
 Mulliken atomic charges:
              1
     1  C   -0.108625
     2  C    0.168194
     3  C    0.014260
     4  C    0.133650
     5  C   -0.072971
     6  C   -0.257165
     7  O   -0.326040
     8  O   -0.444977
     9  O   -0.541496
    10  O   -0.580076
    11  O   -0.513970
    12  H    0.192915
    13  H    0.184865
    14  H    0.199235
    15  H    0.188263
    16  H    0.183450
    17  H    0.192298
    18  H    0.189902
    19  H    0.398401
    20  H    0.417221
    21  H    0.382666
 Sum of Mulliken atomic charges =   0.00000
 Mulliken charges with hydrogens summed into heavy atoms:
              1
     1  C    0.269155
     2  C    0.367429
     3  C    0.202523
     4  C    0.317100
     5  C    0.119327
     6  C   -0.067264
     7  O   -0.326040
     8  O   -0.444977
     9  O   -0.143094
    10  O   -0.162855
    11  O   -0.131305
 Sum of Mulliken charges with hydrogens summed into heavy atoms =   0.00000
 Electronic spatial extent (au):  <R**2>=           1375.3867
 Charge=              0.0000 electrons
 Dipole moment (field-independent basis, Debye):
    X=             -4.5265    Y=              1.6657    Z=             -1.8652  Tot=              5.1713
 Quadrupole moment (field-independent basis, Debye-Ang):
   XX=            -61.8249   YY=            -71.3320   ZZ=            -63.1062
   XY=             -1.9837   XZ=              2.8831   YZ=              5.4590
 Traceless Quadrupole moment (field-independent basis, Debye-Ang):
   XX=              3.5961   YY=             -5.9110   ZZ=              2.3148
   XY=             -1.9837   XZ=              2.8831   YZ=              5.4590
 Octapole moment (field-independent basis, Debye-Ang**2):
  XXX=            -60.6889  YYY=              9.2386  ZZZ=              3.8533  XYY=              4.6150
  XXY=              6.2077  XXZ=             -4.9824  XZZ=             -2.2087  YZZ=             -6.2400
  YYZ=             -4.7955  XYZ=            -11.7621
 Hexadecapole moment (field-independent basis, Debye-Ang**3):
 XXXX=           -748.7224 YYYY=           -627.0334 ZZZZ=           -302.6878 XXXY=             31.3680
 XXXZ=             56.6036 YYYX=             -9.0120 YYYZ=             24.6025 ZZZX=              0.0037
 ZZZY=              2.8775 XXYY=           -215.7891 XXZZ=           -164.9941 YYZZ=           -166.8284
 XXYZ=             -3.4783 YYXZ=             -0.2062 ZZXY=             -3.8441
 N-N= 7.348431277211D+02 E-N=-2.899369097265D+03  KE= 6.051985635255D+02
 1\1\GINC-COMPUTE-8-20\SP\RmPW1PW91\6-31+G(d,p)\C6H10O5\MMARCARINO.IQUI
 R\12-Apr-2019\0\\# mpw1pw91/6-31+g** nmr scrf=(pcm,solvent=water)\\com
 ment\\0,1\C,0,-0.996353,1.209225,1.091457\C,0,-1.294404,0.853507,-0.35
 9488\C,0,0.900516,1.198015,-0.253891\C,0,0.241957,-1.215532,-0.33011\C
 ,0,1.355468,-0.204176,-0.69846\C,0,-1.156423,-0.651035,-0.687234\O,0,-
 0.227686,1.559867,-1.025106\O,0,0.453509,1.179376,1.124251\O,0,-2.1355
 32,-1.434244,-0.019459\O,0,0.394281,-1.576606,1.048384\O,0,2.590888,-0
 .588551,-0.12279\H,0,-1.39283,0.489753,1.811343\H,0,-1.348992,2.214946
 ,1.341045\H,0,-2.244585,1.25186,-0.721693\H,0,1.681808,1.952951,-0.370
 906\H,0,0.384904,-2.151793,-0.877238\H,0,1.490957,-0.161458,-1.784994\
 H,0,-1.258739,-0.73943,-1.778326\H,0,-2.989744,-1.26534,-0.448988\H,0,
 0.415031,-0.737516,1.548085\H,0,2.353941,-1.112741,0.665786\\Version=E
 M64L-G09RevC.01\State=1-A\HF=-610.6474832\RMSD=8.534e-09\Dipole=-1.780
 8568,0.6553178,-0.7338105\Quadrupole=2.6736357,-4.3946605,1.7210248,-1
 .4748312,2.1434897,4.0586637\PG=C01 [X(C6H10O5)]\\@


 I do not feel obliged to believe that the same God who
 has endowed us with sense, reason, and intellect has
 intended us to forgo their use.
                   --Galileo Galilei
 Job cpu time:  0 days  0 hours 21 minutes 47.9 seconds.
 File lengths (MBytes):  RWF=     82 Int=      0 D2E=      0 Chk=      5 Scr=      1
 Normal termination of Gaussian 09 at Fri Apr 12 12:10:37 2019.
