 Entering Gaussian System, Link 0=g09
 Input=/home/mmarcarino.iquir/NMR/06_SSS_Levo05_OPTB_nmr.gjc
 Output=/home/mmarcarino.iquir/NMR/06_SSS_Levo05_OPTB_nmr.log
 Initial command:
 /share/apps/Gaussian09/EM64T.SSE4.2-enabled/g09/l1.exe /tmp/Gau-16170.inp -scrdir=/tmp/
 Entering Link 1 = /share/apps/Gaussian09/EM64T.SSE4.2-enabled/g09/l1.exe PID=     16171.
  
 Copyright (c) 1988,1990,1992,1993,1995,1998,2003,2009,2011,
            Gaussian, Inc.  All Rights Reserved.
  
 This is part of the Gaussian(R) 09 program.  It is based on
 the Gaussian(R) 03 system (copyright 2003, Gaussian, Inc.),
 the Gaussian(R) 98 system (copyright 1998, Gaussian, Inc.),
 the Gaussian(R) 94 system (copyright 1995, Gaussian, Inc.),
 the Gaussian 92(TM) system (copyright 1992, Gaussian, Inc.),
 the Gaussian 90(TM) system (copyright 1990, Gaussian, Inc.),
 the Gaussian 88(TM) system (copyright 1988, Gaussian, Inc.),
 the Gaussian 86(TM) system (copyright 1986, Carnegie Mellon
 University), and the Gaussian 82(TM) system (copyright 1983,
 Carnegie Mellon University). Gaussian is a federally registered
 trademark of Gaussian, Inc.
  
 This software contains proprietary and confidential information,
 including trade secrets, belonging to Gaussian, Inc.
  
 This software is provided under written license and may be
 used, copied, transmitted, or stored only in accord with that
 written license.
  
 The following legend is applicable only to US Government
 contracts under FAR:
  
                    RESTRICTED RIGHTS LEGEND
  
 Use, reproduction and disclosure by the US Government is
 subject to restrictions as set forth in subparagraphs (a)
 and (c) of the Commercial Computer Software - Restricted
 Rights clause in FAR 52.227-19.
  
 Gaussian, Inc.
 340 Quinnipiac St., Bldg. 40, Wallingford CT 06492
  
  
 ---------------------------------------------------------------
 Warning -- This program may not be used in any manner that
 competes with the business of Gaussian, Inc. or will provide
 assistance to any competitor of Gaussian, Inc.  The licensee
 of this program is prohibited from giving any competitor of
 Gaussian, Inc. access to this program.  By using this program,
 the user acknowledges that Gaussian, Inc. is engaged in the
 business of creating and licensing software in the field of
 computational chemistry and represents and warrants to the
 licensee that it is not a competitor of Gaussian, Inc. and that
 it will not use this program in any manner prohibited above.
 ---------------------------------------------------------------
  

 Cite this work as:
 Gaussian 09, Revision C.01,
 M. J. Frisch, G. W. Trucks, H. B. Schlegel, G. E. Scuseria, 
 M. A. Robb, J. R. Cheeseman, G. Scalmani, V. Barone, B. Mennucci, 
 G. A. Petersson, H. Nakatsuji, M. Caricato, X. Li, H. P. Hratchian, 
 A. F. Izmaylov, J. Bloino, G. Zheng, J. L. Sonnenberg, M. Hada, 
 M. Ehara, K. Toyota, R. Fukuda, J. Hasegawa, M. Ishida, T. Nakajima, 
 Y. Honda, O. Kitao, H. Nakai, T. Vreven, J. A. Montgomery, Jr., 
 J. E. Peralta, F. Ogliaro, M. Bearpark, J. J. Heyd, E. Brothers, 
 K. N. Kudin, V. N. Staroverov, T. Keith, R. Kobayashi, J. Normand, 
 K. Raghavachari, A. Rendell, J. C. Burant, S. S. Iyengar, J. Tomasi, 
 M. Cossi, N. Rega, J. M. Millam, M. Klene, J. E. Knox, J. B. Cross, 
 V. Bakken, C. Adamo, J. Jaramillo, R. Gomperts, R. E. Stratmann, 
 O. Yazyev, A. J. Austin, R. Cammi, C. Pomelli, J. W. Ochterski, 
 R. L. Martin, K. Morokuma, V. G. Zakrzewski, G. A. Voth, 
 P. Salvador, J. J. Dannenberg, S. Dapprich, A. D. Daniels, 
 O. Farkas, J. B. Foresman, J. V. Ortiz, J. Cioslowski, 
 and D. J. Fox, Gaussian, Inc., Wallingford CT, 2010.
 
 ******************************************
 Gaussian 09:  EM64L-G09RevC.01 23-Sep-2011
                12-Apr-2019 
 ******************************************
 %nprocshared=4
 Will use up to    4 processors via shared memory.
 ------------------------------------------------
 # mpw1pw91/6-31+g** nmr scrf=(pcm,solvent=water)
 ------------------------------------------------
 1/38=1/1;
 2/12=2,17=6,18=5,40=1/2;
 3/5=1,6=6,7=111,11=2,16=1,25=1,30=1,70=2201,72=1,74=-7/1,2,8,3;
 4//1;
 5/5=2,38=5,53=1/2;
 8/6=1,10=90,11=11/1;
 10/13=100,45=16/2;
 6/7=2,8=2,9=2,10=2,28=1/1;
 99/9=1/99;
 -------
 comment
 -------
 Charge =  0 Multiplicity = 1
 Symbolic Z-Matrix:
 6                    -1.81757   0.58481  -0.80754 
 6                    -1.16618   1.04046   0.49685 
 6                    -0.96764  -1.17683   0.42727 
 6                     1.20208   0.10024   0.77602 
 6                     0.57778  -1.26601   0.37582 
 6                     0.35176   1.34252   0.37095 
 8                    -1.35191  -0.14507   1.30858 
 8                    -1.44825  -0.8105   -0.87363 
 8                     0.65995   1.73403  -0.95964 
 8                     2.4945    0.21531   0.18702 
 8                     1.02892  -1.66915  -0.91397 
 1                    -1.44055   1.09519  -1.69186 
 1                    -2.90792   0.66969  -0.74966 
 1                    -1.70669   1.85192   0.98469 
 1                    -1.44118  -2.10963   0.74056 
 1                     1.31993   0.11484   1.86333 
 1                     0.9287   -2.02875   1.07697 
 1                     0.60794   2.15895   1.06205 
 1                     1.62696   1.60734  -1.02058 
 1                     2.47915  -0.43175  -0.54987 
 1                     0.38663  -1.27604  -1.5387 
 
                          Input orientation:                          
 ---------------------------------------------------------------------
 Center     Atomic      Atomic             Coordinates (Angstroms)
 Number     Number       Type             X           Y           Z
 ---------------------------------------------------------------------
      1          6           0       -1.817572    0.584813   -0.807537
      2          6           0       -1.166184    1.040457    0.496854
      3          6           0       -0.967636   -1.176829    0.427266
      4          6           0        1.202083    0.100242    0.776022
      5          6           0        0.577775   -1.266007    0.375822
      6          6           0        0.351764    1.342522    0.370945
      7          8           0       -1.351906   -0.145072    1.308580
      8          8           0       -1.448248   -0.810495   -0.873633
      9          8           0        0.659946    1.734033   -0.959643
     10          8           0        2.494496    0.215310    0.187020
     11          8           0        1.028919   -1.669145   -0.913970
     12          1           0       -1.440549    1.095187   -1.691860
     13          1           0       -2.907916    0.669693   -0.749664
     14          1           0       -1.706693    1.851924    0.984694
     15          1           0       -1.441182   -2.109628    0.740558
     16          1           0        1.319930    0.114838    1.863333
     17          1           0        0.928700   -2.028753    1.076972
     18          1           0        0.607940    2.158952    1.062047
     19          1           0        1.626960    1.607337   -1.020579
     20          1           0        2.479147   -0.431750   -0.549867
     21          1           0        0.386630   -1.276038   -1.538703
 ---------------------------------------------------------------------
                    Distance matrix (angstroms):
                    1          2          3          4          5
     1  C    0.000000
     2  C    1.527532   0.000000
     3  C    2.313117   2.227245   0.000000
     4  C    3.443949   2.563324   2.541697   0.000000
     5  C    3.250163   2.894101   1.548836   1.554528   0.000000
     6  C    2.582433   1.552824   2.844489   1.558971   2.618306
     7  O    2.286379   1.448748   1.410284   2.620431   2.418719
     8  O    1.444871   2.320306   1.434408   3.251931   2.423509
     9  O    2.735313   2.436633   3.611877   2.444528   3.284883
    10  O    4.440676   3.765295   3.739268   1.424955   2.429767
    11  O    3.632377   3.761761   2.455101   2.452914   1.424645
    12  H    1.088419   2.206522   3.142674   3.750181   3.731511
    13  H    1.095173   2.173684   2.925661   4.420869   4.142909
    14  H    2.197716   1.090237   3.167061   3.401898   3.912929
    15  H    3.130220   3.171443   1.092022   3.445524   2.218314
    16  H    4.147088   2.984091   2.993936   1.093776   2.161068
    17  H    4.233688   3.761001   2.178069   2.167471   1.093865
    18  H    3.443307   2.172093   3.743370   2.161736   3.493159
    19  H    3.599409   3.228871   4.071826   2.383198   3.362563
    20  H    4.422848   4.068348   3.659268   1.916218   2.273346
    21  H    2.975882   3.452662   2.389333   2.813727   1.924069
                    6          7          8          9         10
     6  C    0.000000
     7  O    2.448385   0.000000
     8  O    3.069935   2.283445   0.000000
     9  O    1.420817   3.566990   3.305526   0.000000
    10  O    2.428114   4.022758   4.209809   2.643280   0.000000
    11  O    3.343603   3.595950   2.622072   3.423426   2.628929
    12  H    2.743852   3.247882   2.073928   2.314378   4.448478
    13  H    3.511976   2.705804   2.082536   3.729149   5.501808
    14  H    2.207583   2.053964   3.257092   3.065179   4.578731
    15  H    3.907507   2.046973   2.072054   4.698846   4.604487
    16  H    2.161429   2.741170   4.001254   3.320627   2.049323
    17  H    3.492395   2.966995   3.307400   4.287026   2.877421
    18  H    1.099912   3.034848   4.097851   2.066517   2.846491
    19  H    1.905936   4.167681   3.914640   0.977180   2.036824
    20  H    2.919194   4.267666   3.958877   2.857976   0.980778
    21  H    3.241115   3.522586   2.006446   3.077424   3.105694
                   11         12         13         14         15
    11  O    0.000000
    12  H    3.787468   0.000000
    13  H    4.582121   1.794978   0.000000
    14  H    4.846279   2.794177   2.418389   0.000000
    15  H    3.005476   4.023369   3.478030   3.977938   0.000000
    16  H    3.313713   4.606596   5.001030   3.598600   3.719222
    17  H    2.025639   4.799872   5.033670   4.691851   2.395006
    18  H    4.328532   3.593314   4.226279   2.336188   4.745844
    19  H    3.332319   3.181592   4.638714   3.897972   5.131367
    20  H    1.940845   4.358865   5.502140   5.009122   4.455272
    21  H    0.978448   2.997457   3.906723   4.531410   3.038223
                   16         17         18         19         20
    16  H    0.000000
    17  H    2.316551   0.000000
    18  H    2.308114   4.199998   0.000000
    19  H    3.261713   4.255401   2.383278   0.000000
    20  H    2.732412   2.756975   3.579304   2.259573   0.000000
    21  H    3.792022   2.775279   4.314167   3.181308   2.463584
                   21
    21  H    0.000000
 Stoichiometry    C6H10O5
 Framework group  C1[X(C6H10O5)]
 Deg. of freedom    57
 Full point group                 C1      NOp   1
 Largest Abelian subgroup         C1      NOp   1
 Largest concise Abelian subgroup C1      NOp   1
                         Standard orientation:                         
 ---------------------------------------------------------------------
 Center     Atomic      Atomic             Coordinates (Angstroms)
 Number     Number       Type             X           Y           Z
 ---------------------------------------------------------------------
      1          6           0       -1.817572    0.584813   -0.807537
      2          6           0       -1.166184    1.040457    0.496854
      3          6           0       -0.967636   -1.176829    0.427266
      4          6           0        1.202083    0.100242    0.776022
      5          6           0        0.577775   -1.266007    0.375822
      6          6           0        0.351764    1.342522    0.370945
      7          8           0       -1.351906   -0.145072    1.308580
      8          8           0       -1.448248   -0.810495   -0.873633
      9          8           0        0.659946    1.734033   -0.959643
     10          8           0        2.494496    0.215311    0.187020
     11          8           0        1.028919   -1.669145   -0.913970
     12          1           0       -1.440549    1.095187   -1.691860
     13          1           0       -2.907916    0.669692   -0.749664
     14          1           0       -1.706693    1.851924    0.984694
     15          1           0       -1.441182   -2.109628    0.740558
     16          1           0        1.319930    0.114838    1.863333
     17          1           0        0.928700   -2.028753    1.076972
     18          1           0        0.607939    2.158952    1.062047
     19          1           0        1.626960    1.607337   -1.020579
     20          1           0        2.479147   -0.431749   -0.549867
     21          1           0        0.386630   -1.276038   -1.538703
 ---------------------------------------------------------------------
 Rotational constants (GHZ):      1.6406938      1.2317698      0.9992653
 Standard basis: 6-31+G(d,p) (6D, 7F)
 There are   259 symmetry adapted basis functions of A   symmetry.
 Integral buffers will be    131072 words long.
 Raffenetti 2 integral format.
 Two-electron integral symmetry is turned on.
   259 basis functions,   422 primitive gaussians,   259 cartesian basis functions
    43 alpha electrons       43 beta electrons
       nuclear repulsion energy       736.7730207051 Hartrees.
 NAtoms=   21 NActive=   21 NUniq=   21 SFac= 1.00D+00 NAtFMM=   60 NAOKFM=F Big=F
 ------------------------------------------------------------------------------
 Polarizable Continuum Model (PCM)
 =================================
 Model                : PCM.
 Atomic radii         : UFF (Universal Force Field).
 Polarization charges : Total charges.
 Charge compensation  : None.
 Solution method      : Matrix inversion.
 Cavity type          : Scaled VdW (van der Waals Surface) (Alpha=1.100).
 Cavity algorithm     : GePol (No added spheres)
                        Default sphere list used, NSphG=   21.
                        Lebedev-Laikov grids with approx.  5.0 points / Ang**2.
                        Smoothing algorithm: Karplus/York (Gamma=1.0000).
                        Polarization charges: spherical gaussians, with
                                              point-specific exponents (IZeta= 3).
                        Self-potential: point-specific (ISelfS= 7).
                        Self-field    : sphere-specific E.n sum rule (ISelfD= 2).
 Solvent              : Water, Eps=  78.355300 Eps(inf)=   1.777849
 ------------------------------------------------------------------------------
 One-electron integrals computed using PRISM.
 NBasis=   259 RedAO= T  NBF=   259
 NBsUse=   259 1.00D-06 NBFU=   259
 Harris functional with IExCor=  908 diagonalized for initial guess.
 ExpMin= 4.38D-02 ExpMax= 5.48D+03 ExpMxC= 8.25D+02 IAcc=2 IRadAn=         4 AccDes= 0.00D+00
 HarFok:  IExCor=  908 AccDes= 0.00D+00 IRadAn=         4 IDoV= 1
 ScaDFX=  1.000000  1.000000  1.000000  1.000000
 FoFCou: FMM=F IPFlag=           0 FMFlag=      100000 FMFlg1=           0
         NFxFlg=           0 DoJE=T BraDBF=F KetDBF=T FulRan=T
         Omega=  0.000000  0.000000  1.000000  0.000000  0.000000 ICntrl=     500 IOpCl=  0
         NMat0=    1 NMatS0=    1 NMatT0=    0 NMatD0=    1 NMtDS0=    0 NMtDT0=    0
         I1Cent=           4 NGrid=           0.
 Petite list used in FoFCou.
 Initial guess orbital symmetries:
       Occupied  (A) (A) (A) (A) (A) (A) (A) (A) (A) (A) (A) (A)
                 (A) (A) (A) (A) (A) (A) (A) (A) (A) (A) (A) (A)
                 (A) (A) (A) (A) (A) (A) (A) (A) (A) (A) (A) (A)
                 (A) (A) (A) (A) (A) (A) (A)
       Virtual   (A) (A) (A) (A) (A) (A) (A) (A) (A) (A) (A) (A)
                 (A) (A) (A) (A) (A) (A) (A) (A) (A) (A) (A) (A)
                 (A) (A) (A) (A) (A) (A) (A) (A) (A) (A) (A) (A)
                 (A) (A) (A) (A) (A) (A) (A) (A) (A) (A) (A) (A)
                 (A) (A) (A) (A) (A) (A) (A) (A) (A) (A) (A) (A)
                 (A) (A) (A) (A) (A) (A) (A) (A) (A) (A) (A) (A)
                 (A) (A) (A) (A) (A) (A) (A) (A) (A) (A) (A) (A)
                 (A) (A) (A) (A) (A) (A) (A) (A) (A) (A) (A) (A)
                 (A) (A) (A) (A) (A) (A) (A) (A) (A) (A) (A) (A)
                 (A) (A) (A) (A) (A) (A) (A) (A) (A) (A) (A) (A)
                 (A) (A) (A) (A) (A) (A) (A) (A) (A) (A) (A) (A)
                 (A) (A) (A) (A) (A) (A) (A) (A) (A) (A) (A) (A)
                 (A) (A) (A) (A) (A) (A) (A) (A) (A) (A) (A) (A)
                 (A) (A) (A) (A) (A) (A) (A) (A) (A) (A) (A) (A)
                 (A) (A) (A) (A) (A) (A) (A) (A) (A) (A) (A) (A)
                 (A) (A) (A) (A) (A) (A) (A) (A) (A) (A) (A) (A)
                 (A) (A) (A) (A) (A) (A) (A) (A) (A) (A) (A) (A)
                 (A) (A) (A) (A) (A) (A) (A) (A) (A) (A) (A) (A)
 The electronic state of the initial guess is 1-A.
 Requested convergence on RMS density matrix=1.00D-08 within 128 cycles.
 Requested convergence on MAX density matrix=1.00D-06.
 Requested convergence on             energy=1.00D-06.
 No special actions if energy rises.
 Error on total polarization charges =  0.01137
 SCF Done:  E(RmPW1PW91) =  -610.646253212     A.U. after   12 cycles
             Convg  =    0.5664D-08             -V/T =  2.0090
 Range of M.O.s used for correlation:     1   259
 NBasis=   259 NAE=    43 NBE=    43 NFC=     0 NFV=     0
 NROrb=    259 NOA=    43 NOB=    43 NVA=   216 NVB=   216

 **** Warning!!: The largest alpha MO coefficient is  0.67681284D+02

 NEqPCM:  Using equilibrium solvation (IEInf=0, Eps=  78.3553, EpsInf=   1.7778)
          Differentiating once with respect to magnetic field using GIAOs.
          Electric field/nuclear overlap derivatives assumed to be zero.
 FoFCou: FMM=F IPFlag=           0 FMFlag=    10101102 FMFlg1=           0
         NFxFlg=    40000000 DoJE=F BraDBF=F KetDBF=T FulRan=T
         Omega=  0.000000  0.000000  1.000000  0.000000  0.000000 ICntrl=    6100 IOpCl=  0
         NMat0=    1 NMatS0=    1 NMatT0=    0 NMatD0=    1 NMtDS0=    0 NMtDT0=    0
         I1Cent=           7 NGrid=        1514.
 Symmetry not used in FoFCou.
          There are     3 degrees of freedom in the 1st order CPHF.  IDoFFX=0.
      3 vectors produced by pass  0 Test12= 3.10D-13 3.33D-08 XBig12= 2.38D+01 7.90D-01.
 AX will form     3 AO Fock derivatives at one time.
      3 vectors produced by pass  1 Test12= 3.10D-13 3.33D-08 XBig12= 5.39D-02 3.13D-02.
      3 vectors produced by pass  2 Test12= 3.10D-13 3.33D-08 XBig12= 1.12D-04 1.64D-03.
      3 vectors produced by pass  3 Test12= 3.10D-13 3.33D-08 XBig12= 5.56D-07 1.11D-04.
      3 vectors produced by pass  4 Test12= 3.10D-13 3.33D-08 XBig12= 1.71D-09 6.23D-06.
      3 vectors produced by pass  5 Test12= 3.10D-13 3.33D-08 XBig12= 4.94D-12 3.09D-07.
 Inverted reduced A of dimension    18 with in-core refinement.
 Calculating GIAO nuclear magnetic shielding tensors.
 SCF GIAO Magnetic shielding tensor (ppm):
      1  C    Isotropic =   131.0940   Anisotropy =    67.0269
   XX=   111.0712   YX=   -16.5338   ZX=     9.9383
   XY=   -15.4877   YY=   171.2138   ZY=    13.6463
   XZ=     3.1717   YZ=     2.0355   ZZ=   110.9969
   Eigenvalues:   100.3577   117.1456   175.7786
      2  C    Isotropic =   117.8627   Anisotropy =    53.6010
   XX=   100.6382   YX=    17.8343   ZX=     9.1230
   XY=     6.3735   YY=   130.8284   ZY=   -26.2162
   XZ=     0.7142   YZ=   -25.8489   ZZ=   122.1214
   Eigenvalues:    88.4993   111.4920   153.5967
      3  C    Isotropic =    96.3170   Anisotropy =    35.7447
   XX=    81.7360   YX=   -19.5180   ZX=    10.6361
   XY=    -8.9632   YY=    89.8293   ZY=    10.2257
   XZ=     7.5278   YZ=     4.3492   ZZ=   117.3856
   Eigenvalues:    68.2225   100.5817   120.1468
      4  C    Isotropic =   130.9163   Anisotropy =    44.4191
   XX=   152.6255   YX=     0.7145   ZX=   -10.6253
   XY=    -0.5269   YY=   117.4604   ZY=    -6.3310
   XZ=   -23.3386   YZ=    -8.6723   ZZ=   122.6631
   Eigenvalues:   109.2384   122.9815   160.5291
      5  C    Isotropic =   126.8705   Anisotropy =    36.2872
   XX=   119.7764   YX=     1.7354   ZX=   -11.6441
   XY=     2.4693   YY=   118.9198   ZY=    15.5341
   XZ=   -10.1976   YZ=    12.0648   ZZ=   141.9154
   Eigenvalues:   108.0567   121.4928   151.0620
      6  C    Isotropic =   128.5272   Anisotropy =    36.7337
   XX=   118.0263   YX=     1.7641   ZX=    -7.8297
   XY=     2.1367   YY=   122.1370   ZY=   -18.7725
   XZ=    -3.9010   YZ=    -9.1071   ZZ=   145.4184
   Eigenvalues:   115.3106   117.2547   153.0164
      7  O    Isotropic =   249.8199   Anisotropy =    80.3243
   XX=   200.4884   YX=   -30.0344   ZX=    -0.1394
   XY=   -22.3476   YY=   248.0522   ZY=     3.4056
   XZ=    26.2050   YZ=    -9.2414   ZZ=   300.9192
   Eigenvalues:   187.8655   258.2248   303.3695
      8  O    Isotropic =   271.2282   Anisotropy =    99.2043
   XX=   195.5691   YX=   -37.4621   ZX=    34.7542
   XY=   -39.3036   YY=   303.6627   ZY=     7.7274
   XZ=    30.6874   YZ=    47.8337   ZZ=   314.4528
   Eigenvalues:   172.1489   304.1713   337.3644
      9  O    Isotropic =   304.6714   Anisotropy =    52.9508
   XX=   336.0825   YX=    -2.4023   ZX=    16.4571
   XY=     6.1151   YY=   281.0466   ZY=    28.8304
   XZ=     7.4212   YZ=    -1.5683   ZZ=   296.8850
   Eigenvalues:   272.8822   301.1600   339.9719
     10  O    Isotropic =   319.4981   Anisotropy =    47.7560
   XX=   319.6577   YX=     0.7496   ZX=     1.9165
   XY=     2.6094   YY=   329.5085   ZY=    24.8227
   XZ=    34.6845   YZ=    25.5179   ZZ=   309.3282
   Eigenvalues:   285.8907   321.2682   351.3354
     11  O    Isotropic =   310.3394   Anisotropy =    76.9855
   XX=   316.6598   YX=   -16.2851   ZX=    45.2127
   XY=   -30.7296   YY=   297.0250   ZY=    -9.4199
   XZ=    27.6897   YZ=    -8.1845   ZZ=   317.3334
   Eigenvalues:   273.8960   295.4591   361.6631
     12  H    Isotropic =    26.8344   Anisotropy =     6.0734
   XX=    26.4805   YX=     0.4254   ZX=     1.1324
   XY=     0.4519   YY=    27.0244   ZY=    -4.7627
   XZ=     1.9649   YZ=    -2.6856   ZZ=    26.9983
   Eigenvalues:    22.7462    26.8737    30.8833
     13  H    Isotropic =    27.9723   Anisotropy =    12.1783
   XX=    33.6639   YX=    -3.6064   ZX=     2.8721
   XY=    -5.1436   YY=    27.0058   ZY=     0.3263
   XZ=     1.4857   YZ=     0.2993   ZZ=    23.2472
   Eigenvalues:    22.3714    25.4543    36.0912
     14  H    Isotropic =    26.6667   Anisotropy =     8.4221
   XX=    26.2345   YX=    -2.8327   ZX=    -2.1695
   XY=    -2.3921   YY=    29.6662   ZY=     3.3933
   XZ=    -1.8144   YZ=     1.5753   ZZ=    24.0995
   Eigenvalues:    22.7604    24.9583    32.2815
     15  H    Isotropic =    25.9124   Anisotropy =     9.0555
   XX=    24.2599   YX=     2.7591   ZX=    -0.6451
   XY=     2.7030   YY=    29.5440   ZY=    -2.8737
   XZ=    -1.2109   YZ=    -3.2037   ZZ=    23.9331
   Eigenvalues:    22.5226    23.2651    31.9494
     16  H    Isotropic =    27.8398   Anisotropy =     7.0813
   XX=    27.7595   YX=    -0.0738   ZX=     1.0651
   XY=    -0.2911   YY=    23.7229   ZY=    -0.4860
   XZ=     2.0956   YZ=     0.2506   ZZ=    32.0369
   Eigenvalues:    23.7144    27.2443    32.5606
     17  H    Isotropic =    27.7179   Anisotropy =     8.5589
   XX=    24.1425   YX=    -1.2314   ZX=     0.5636
   XY=    -1.3856   YY=    29.4856   ZY=    -3.3795
   XZ=     1.0804   YZ=    -3.9676   ZZ=    29.5255
   Eigenvalues:    23.8390    25.8908    33.4238
     18  H    Isotropic =    27.3173   Anisotropy =     8.7608
   XX=    23.9289   YX=     0.8233   ZX=     0.1822
   XY=     1.2988   YY=    28.6837   ZY=     3.7278
   XZ=    -0.2935   YZ=     4.4379   ZZ=    29.3392
   Eigenvalues:    23.4311    25.3629    33.1578
     19  H    Isotropic =    28.3484   Anisotropy =    17.5496
   XX=    39.6856   YX=    -2.3193   ZX=    -2.0755
   XY=    -1.5100   YY=    22.9630   ZY=    -6.4119
   XZ=    -2.2056   YZ=    -4.3657   ZZ=    22.3966
   Eigenvalues:    16.9216    28.0755    40.0482
     20  H    Isotropic =    27.7179   Anisotropy =    18.5355
   XX=    25.3677   YX=     2.1707   ZX=    -1.3766
   XY=     1.9523   YY=    29.2094   ZY=    11.2726
   XZ=    -2.4360   YZ=    11.0792   ZZ=    28.5766
   Eigenvalues:    16.7955    26.2834    40.0749
     21  H    Isotropic =    28.7922   Anisotropy =    17.2029
   XX=    32.1696   YX=    -7.0477   ZX=     5.1373
   XY=    -6.6494   YY=    22.4361   ZY=    -2.9782
   XZ=     6.5629   YZ=    -1.4351   ZZ=    31.7707
   Eigenvalues:    18.8521    27.2636    40.2608
 End of Minotr Frequency-dependent properties file   721 does not exist.
 End of Minotr Frequency-dependent properties file   722 does not exist.

 **********************************************************************

            Population analysis using the SCF density.

 **********************************************************************

 Orbital symmetries:
       Occupied  (A) (A) (A) (A) (A) (A) (A) (A) (A) (A) (A) (A)
                 (A) (A) (A) (A) (A) (A) (A) (A) (A) (A) (A) (A)
                 (A) (A) (A) (A) (A) (A) (A) (A) (A) (A) (A) (A)
                 (A) (A) (A) (A) (A) (A) (A)
       Virtual   (A) (A) (A) (A) (A) (A) (A) (A) (A) (A) (A) (A)
                 (A) (A) (A) (A) (A) (A) (A) (A) (A) (A) (A) (A)
                 (A) (A) (A) (A) (A) (A) (A) (A) (A) (A) (A) (A)
                 (A) (A) (A) (A) (A) (A) (A) (A) (A) (A) (A) (A)
                 (A) (A) (A) (A) (A) (A) (A) (A) (A) (A) (A) (A)
                 (A) (A) (A) (A) (A) (A) (A) (A) (A) (A) (A) (A)
                 (A) (A) (A) (A) (A) (A) (A) (A) (A) (A) (A) (A)
                 (A) (A) (A) (A) (A) (A) (A) (A) (A) (A) (A) (A)
                 (A) (A) (A) (A) (A) (A) (A) (A) (A) (A) (A) (A)
                 (A) (A) (A) (A) (A) (A) (A) (A) (A) (A) (A) (A)
                 (A) (A) (A) (A) (A) (A) (A) (A) (A) (A) (A) (A)
                 (A) (A) (A) (A) (A) (A) (A) (A) (A) (A) (A) (A)
                 (A) (A) (A) (A) (A) (A) (A) (A) (A) (A) (A) (A)
                 (A) (A) (A) (A) (A) (A) (A) (A) (A) (A) (A) (A)
                 (A) (A) (A) (A) (A) (A) (A) (A) (A) (A) (A) (A)
                 (A) (A) (A) (A) (A) (A) (A) (A) (A) (A) (A) (A)
                 (A) (A) (A) (A) (A) (A) (A) (A) (A) (A) (A) (A)
                 (A) (A) (A) (A) (A) (A) (A) (A) (A) (A) (A) (A)
 The electronic state is 1-A.
 Alpha  occ. eigenvalues --  -19.28294 -19.27828 -19.27230 -19.26578 -19.25795
 Alpha  occ. eigenvalues --  -10.36518 -10.32096 -10.31652 -10.31302 -10.31250
 Alpha  occ. eigenvalues --  -10.30569  -1.14870  -1.09385  -1.07251  -1.05065
 Alpha  occ. eigenvalues --   -1.04347  -0.82248  -0.80347  -0.71217  -0.68376
 Alpha  occ. eigenvalues --   -0.64488  -0.60540  -0.58277  -0.55762  -0.53824
 Alpha  occ. eigenvalues --   -0.52756  -0.51397  -0.48986  -0.47473  -0.47258
 Alpha  occ. eigenvalues --   -0.44306  -0.42879  -0.42740  -0.40560  -0.38570
 Alpha  occ. eigenvalues --   -0.37941  -0.37472  -0.36258  -0.33373  -0.33139
 Alpha  occ. eigenvalues --   -0.30169  -0.29555  -0.28202
 Alpha virt. eigenvalues --    0.00105   0.01327   0.02468   0.02539   0.04098
 Alpha virt. eigenvalues --    0.04739   0.05176   0.05558   0.05701   0.08190
 Alpha virt. eigenvalues --    0.08640   0.09722   0.09811   0.10635   0.11437
 Alpha virt. eigenvalues --    0.11923   0.12924   0.13452   0.13673   0.14883
 Alpha virt. eigenvalues --    0.15547   0.15926   0.16674   0.16757   0.17085
 Alpha virt. eigenvalues --    0.17751   0.18686   0.19576   0.19855   0.20433
 Alpha virt. eigenvalues --    0.21083   0.21593   0.22133   0.23683   0.23971
 Alpha virt. eigenvalues --    0.24821   0.25384   0.25780   0.26074   0.27442
 Alpha virt. eigenvalues --    0.28148   0.28780   0.29547   0.30509   0.30868
 Alpha virt. eigenvalues --    0.31784   0.32448   0.32873   0.33530   0.34027
 Alpha virt. eigenvalues --    0.34499   0.35306   0.35836   0.36143   0.36960
 Alpha virt. eigenvalues --    0.37898   0.38443   0.39180   0.39754   0.40629
 Alpha virt. eigenvalues --    0.42028   0.42388   0.45279   0.47064   0.48617
 Alpha virt. eigenvalues --    0.49993   0.64934   0.65763   0.67890   0.69818
 Alpha virt. eigenvalues --    0.70327   0.74737   0.75276   0.76337   0.77178
 Alpha virt. eigenvalues --    0.78218   0.80982   0.81971   0.83090   0.85596
 Alpha virt. eigenvalues --    0.86660   0.89876   0.93472   0.96040   0.99027
 Alpha virt. eigenvalues --    1.00480   1.03147   1.04262   1.05068   1.07248
 Alpha virt. eigenvalues --    1.08377   1.09735   1.11663   1.13764   1.14825
 Alpha virt. eigenvalues --    1.19630   1.23129   1.24117   1.25798   1.27560
 Alpha virt. eigenvalues --    1.28357   1.30286   1.31564   1.33265   1.34725
 Alpha virt. eigenvalues --    1.36320   1.36546   1.38309   1.39629   1.40360
 Alpha virt. eigenvalues --    1.42244   1.45383   1.47201   1.48873   1.51917
 Alpha virt. eigenvalues --    1.53794   1.55544   1.56492   1.58661   1.59201
 Alpha virt. eigenvalues --    1.62226   1.64237   1.65842   1.67189   1.69038
 Alpha virt. eigenvalues --    1.71770   1.72238   1.75147   1.76084   1.79872
 Alpha virt. eigenvalues --    1.81004   1.82119   1.83577   1.84565   1.87210
 Alpha virt. eigenvalues --    1.89460   1.91895   1.94659   1.97184   1.98849
 Alpha virt. eigenvalues --    1.99389   2.01378   2.04796   2.07278   2.09228
 Alpha virt. eigenvalues --    2.11000   2.12395   2.13704   2.15429   2.17942
 Alpha virt. eigenvalues --    2.19634   2.22336   2.26809   2.28865   2.32313
 Alpha virt. eigenvalues --    2.32450   2.34118   2.39222   2.40670   2.43217
 Alpha virt. eigenvalues --    2.46156   2.47989   2.50616   2.51933   2.52778
 Alpha virt. eigenvalues --    2.56612   2.56744   2.60953   2.62140   2.62928
 Alpha virt. eigenvalues --    2.66137   2.66563   2.67684   2.68934   2.70439
 Alpha virt. eigenvalues --    2.72485   2.74371   2.76049   2.77922   2.79547
 Alpha virt. eigenvalues --    2.82471   2.85949   2.86236   2.88559   2.92013
 Alpha virt. eigenvalues --    2.93783   2.95643   2.98247   2.99249   3.01584
 Alpha virt. eigenvalues --    3.07409   3.08281   3.12576   3.16212   3.19698
 Alpha virt. eigenvalues --    3.35904   3.40132   3.42056   3.45704   3.50163
 Alpha virt. eigenvalues --    3.52926   3.53771   3.59023   3.60088   3.61083
 Alpha virt. eigenvalues --    4.28939   4.29921   4.39756   4.48585   4.51049
 Alpha virt. eigenvalues --    4.60822   4.62727   4.75168   4.81230   5.00431
 Alpha virt. eigenvalues --    5.04922
          Condensed to atoms (all electrons):
              1          2          3          4          5          6
     1  C    5.496154   0.032149  -0.104488   0.100775  -0.014242  -0.301470
     2  C    0.032149   6.551161  -0.861289  -0.033380   0.335492  -0.356285
     3  C   -0.104488  -0.861289   6.951413   0.060891  -1.084737   0.391848
     4  C    0.100775  -0.033380   0.060891   6.547989  -0.430762  -0.510642
     5  C   -0.014242   0.335492  -1.084737  -0.430762   6.956093  -0.197605
     6  C   -0.301470  -0.356285   0.391848  -0.510642  -0.197605   6.688621
     7  O   -0.032367   0.169095   0.304366   0.059048  -0.169747  -0.210542
     8  O    0.126241  -0.122578   0.235791   0.003155  -0.172815   0.105462
     9  O    0.021039  -0.158571  -0.048338  -0.104436   0.108077   0.215133
    10  O    0.001974   0.070469  -0.030979   0.296076  -0.050433  -0.219010
    11  O    0.015006  -0.048796  -0.014570  -0.177574   0.270798   0.001519
    12  H    0.475731  -0.120084   0.021888  -0.000401   0.001534   0.000621
    13  H    0.370802  -0.010233  -0.027155  -0.003538   0.011477   0.033591
    14  H   -0.005531   0.308582   0.014784   0.007954  -0.001533   0.020693
    15  H    0.003480   0.029328   0.325832   0.012165   0.000218   0.001188
    16  H   -0.000764   0.005392  -0.017380   0.388855  -0.009455  -0.059924
    17  H   -0.003408  -0.021793   0.010772  -0.038505   0.332933   0.055577
    18  H    0.012577  -0.005521  -0.030506  -0.000111   0.057839   0.270903
    19  H   -0.004520   0.050293  -0.009604  -0.059920   0.003752   0.007318
    20  H   -0.000545  -0.013046   0.041423   0.031557  -0.080763  -0.003950
    21  H    0.002921  -0.004532  -0.045538  -0.016074   0.014127   0.025720
              7          8          9         10         11         12
     1  C   -0.032367   0.126241   0.021039   0.001974   0.015006   0.475731
     2  C    0.169095  -0.122578  -0.158571   0.070469  -0.048796  -0.120084
     3  C    0.304366   0.235791  -0.048338  -0.030979  -0.014570   0.021888
     4  C    0.059048   0.003155  -0.104436   0.296076  -0.177574  -0.000401
     5  C   -0.169747  -0.172815   0.108077  -0.050433   0.270798   0.001534
     6  C   -0.210542   0.105462   0.215133  -0.219010   0.001519   0.000621
     7  O    8.322985  -0.073096   0.014721   0.004267   0.012404   0.012652
     8  O   -0.073096   8.446088   0.002189  -0.006271  -0.021524  -0.055557
     9  O    0.014721   0.002189   8.317873  -0.003323   0.011266  -0.003314
    10  O    0.004267  -0.006271  -0.003323   8.317991  -0.021666   0.000109
    11  O    0.012404  -0.021524   0.011266  -0.021666   8.286715   0.000683
    12  H    0.012652  -0.055557  -0.003314   0.000109   0.000683   0.498848
    13  H   -0.007870  -0.038802  -0.000369   0.000006  -0.000641  -0.033863
    14  H   -0.040933   0.010261   0.004853  -0.000339   0.000004   0.001864
    15  H   -0.052523  -0.034049   0.000213  -0.000444  -0.000046  -0.000244
    16  H    0.002881  -0.001345   0.006330  -0.045922   0.010858  -0.000002
    17  H    0.000293   0.006413  -0.000698  -0.000397  -0.048384   0.000001
    18  H    0.005994  -0.001173  -0.044690   0.006223  -0.000038   0.000023
    19  H   -0.000504  -0.001709   0.231551   0.041313  -0.001248   0.000363
    20  H   -0.000253  -0.000625  -0.003032   0.241627   0.038681  -0.000001
    21  H    0.000183   0.033070  -0.001437  -0.000997   0.250067  -0.000080
             13         14         15         16         17         18
     1  C    0.370802  -0.005531   0.003480  -0.000764  -0.003408   0.012577
     2  C   -0.010233   0.308582   0.029328   0.005392  -0.021793  -0.005521
     3  C   -0.027155   0.014784   0.325832  -0.017380   0.010772  -0.030506
     4  C   -0.003538   0.007954   0.012165   0.388855  -0.038505  -0.000111
     5  C    0.011477  -0.001533   0.000218  -0.009455   0.332933   0.057839
     6  C    0.033591   0.020693   0.001188  -0.059924   0.055577   0.270903
     7  O   -0.007870  -0.040933  -0.052523   0.002881   0.000293   0.005994
     8  O   -0.038802   0.010261  -0.034049  -0.001345   0.006413  -0.001173
     9  O   -0.000369   0.004853   0.000213   0.006330  -0.000698  -0.044690
    10  O    0.000006  -0.000339  -0.000444  -0.045922  -0.000397   0.006223
    11  O   -0.000641   0.000004  -0.000046   0.010858  -0.048384  -0.000038
    12  H   -0.033863   0.001864  -0.000244  -0.000002   0.000001   0.000023
    13  H    0.531023  -0.003287   0.000601   0.000001   0.000006  -0.000068
    14  H   -0.003287   0.492522   0.000009  -0.000140   0.000013  -0.007541
    15  H    0.000601   0.000009   0.526125  -0.000163  -0.004533   0.000006
    16  H    0.000001  -0.000140  -0.000163   0.536049  -0.005580  -0.004636
    17  H    0.000006   0.000013  -0.004533  -0.005580   0.523269  -0.000221
    18  H   -0.000068  -0.007541   0.000006  -0.004636  -0.000221   0.578679
    19  H   -0.000009  -0.000254  -0.000003   0.000697  -0.000029  -0.002006
    20  H    0.000000   0.000001  -0.000034   0.003703   0.000020  -0.000478
    21  H    0.000079  -0.000002   0.000445  -0.000276   0.005539  -0.000023
             19         20         21
     1  C   -0.004520  -0.000545   0.002921
     2  C    0.050293  -0.013046  -0.004532
     3  C   -0.009604   0.041423  -0.045538
     4  C   -0.059920   0.031557  -0.016074
     5  C    0.003752  -0.080763   0.014127
     6  C    0.007318  -0.003950   0.025720
     7  O   -0.000504  -0.000253   0.000183
     8  O   -0.001709  -0.000625   0.033070
     9  O    0.231551  -0.003032  -0.001437
    10  O    0.041313   0.241627  -0.000997
    11  O   -0.001248   0.038681   0.250067
    12  H    0.000363  -0.000001  -0.000080
    13  H   -0.000009   0.000000   0.000079
    14  H   -0.000254   0.000001  -0.000002
    15  H   -0.000003  -0.000034   0.000445
    16  H    0.000697   0.003703  -0.000276
    17  H   -0.000029   0.000020   0.005539
    18  H   -0.002006  -0.000478  -0.000023
    19  H    0.349206  -0.003779  -0.000099
    20  H   -0.003779   0.342297  -0.002618
    21  H   -0.000099  -0.002618   0.327834
 Mulliken atomic charges:
              1
     1  C   -0.191514
     2  C    0.204148
     3  C   -0.084425
     4  C   -0.133124
     5  C    0.119754
     6  C    0.041235
     7  O   -0.321053
     8  O   -0.439127
     9  O   -0.565037
    10  O   -0.600273
    11  O   -0.563514
    12  H    0.199231
    13  H    0.178251
    14  H    0.198021
    15  H    0.192429
    16  H    0.190821
    17  H    0.188713
    18  H    0.164768
    19  H    0.399191
    20  H    0.409814
    21  H    0.411691
 Sum of Mulliken atomic charges =   0.00000
 Mulliken charges with hydrogens summed into heavy atoms:
              1
     1  C    0.185968
     2  C    0.402169
     3  C    0.108004
     4  C    0.057698
     5  C    0.308467
     6  C    0.206003
     7  O   -0.321053
     8  O   -0.439127
     9  O   -0.165846
    10  O   -0.190459
    11  O   -0.151823
 Sum of Mulliken charges with hydrogens summed into heavy atoms =   0.00000
 Electronic spatial extent (au):  <R**2>=           1354.7755
 Charge=              0.0000 electrons
 Dipole moment (field-independent basis, Debye):
    X=             -1.5625    Y=              0.7461    Z=              0.9646  Tot=              1.9820
 Quadrupole moment (field-independent basis, Debye-Ang):
   XX=            -68.3450   YY=            -64.9345   ZZ=            -64.9135
   XY=             -2.3260   XZ=             -0.1653   YZ=             -1.0567
 Traceless Quadrupole moment (field-independent basis, Debye-Ang):
   XX=             -2.2807   YY=              1.1298   ZZ=              1.1509
   XY=             -2.3260   XZ=             -0.1653   YZ=             -1.0567
 Octapole moment (field-independent basis, Debye-Ang**2):
  XXX=            -16.5760  YYY=             -2.7224  ZZZ=            -10.5178  XYY=             -7.9788
  XXY=              7.6728  XXZ=            -12.9601  XZZ=             10.2259  YZZ=              0.0074
  YYZ=             16.7728  XYZ=             -1.0087
 Hexadecapole moment (field-independent basis, Debye-Ang**3):
 XXXX=           -828.0187 YYYY=           -578.3454 ZZZZ=           -315.0311 XXXY=            -18.9008
 XXXZ=            -31.1896 YYYX=             16.0351 YYYZ=             -2.7744 ZZZX=              3.2775
 ZZZY=              5.4925 XXYY=           -214.1441 XXZZ=           -185.3315 YYZZ=           -146.1772
 XXYZ=            -13.9405 YYXZ=             -3.2066 ZZXY=             -1.9141
 N-N= 7.367730207051D+02 E-N=-2.903149594651D+03  KE= 6.052108528767D+02
 1\1\GINC-COMPUTE-8-8\SP\RmPW1PW91\6-31+G(d,p)\C6H10O5\MMARCARINO.IQUIR
 \12-Apr-2019\0\\# mpw1pw91/6-31+g** nmr scrf=(pcm,solvent=water)\\comm
 ent\\0,1\C,0,-1.817572,0.584813,-0.807537\C,0,-1.166184,1.040457,0.496
 854\C,0,-0.967636,-1.176829,0.427266\C,0,1.202083,0.100242,0.776022\C,
 0,0.577775,-1.266007,0.375822\C,0,0.351764,1.342522,0.370945\O,0,-1.35
 1906,-0.145072,1.30858\O,0,-1.448248,-0.810495,-0.873633\O,0,0.659946,
 1.734033,-0.959643\O,0,2.494496,0.21531,0.18702\O,0,1.028919,-1.669145
 ,-0.91397\H,0,-1.440549,1.095187,-1.69186\H,0,-2.907916,0.669693,-0.74
 9664\H,0,-1.706693,1.851924,0.984694\H,0,-1.441182,-2.109628,0.740558\
 H,0,1.31993,0.114838,1.863333\H,0,0.9287,-2.028753,1.076972\H,0,0.6079
 4,2.158952,1.062047\H,0,1.62696,1.607337,-1.020579\H,0,2.479147,-0.431
 75,-0.549867\H,0,0.38663,-1.276038,-1.538703\\Version=EM64L-G09RevC.01
 \State=1-A\HF=-610.6462532\RMSD=5.664e-09\Dipole=-0.6147305,0.2935222,
 0.3794985\Quadrupole=-1.6956197,0.8399731,0.8556466,-1.7293572,-0.1229
 046,-0.7856378\PG=C01 [X(C6H10O5)]\\@


      THE ONE-EYED VIEW OF OUR UNIVERSE SAYS YOU MUST NOT LOOK
      FAR AFIELD FOR PROBLEMS.  SUCH PROBLEMS MAY NEVER ARRIVE. 
      INSTEAD, TEND TO THE WOLF WITHIN YOUR FENCES.
      THE PACKS RANGING OUTSIDE MAY NOT EVEN EXIST.

                              -- THE AZHAR BOOK SHAMRA I:4
                                 CHILDREN OF DUNE, BY FRANK HERBERT
 Job cpu time:  0 days  0 hours 21 minutes 23.3 seconds.
 File lengths (MBytes):  RWF=     82 Int=      0 D2E=      0 Chk=      5 Scr=      1
 Normal termination of Gaussian 09 at Fri Apr 12 12:08:01 2019.
