 Entering Gaussian System, Link 0=g09
 Input=/home/mmarcarino.iquir/NMR/06_SSS_Levo04_OPTB_nmr.gjc
 Output=/home/mmarcarino.iquir/NMR/06_SSS_Levo04_OPTB_nmr.log
 Initial command:
 /share/apps/Gaussian09/EM64T.SSE4.2-enabled/g09/l1.exe /tmp/Gau-32112.inp -scrdir=/tmp/
 Entering Link 1 = /share/apps/Gaussian09/EM64T.SSE4.2-enabled/g09/l1.exe PID=     32113.
  
 Copyright (c) 1988,1990,1992,1993,1995,1998,2003,2009,2011,
            Gaussian, Inc.  All Rights Reserved.
  
 This is part of the Gaussian(R) 09 program.  It is based on
 the Gaussian(R) 03 system (copyright 2003, Gaussian, Inc.),
 the Gaussian(R) 98 system (copyright 1998, Gaussian, Inc.),
 the Gaussian(R) 94 system (copyright 1995, Gaussian, Inc.),
 the Gaussian 92(TM) system (copyright 1992, Gaussian, Inc.),
 the Gaussian 90(TM) system (copyright 1990, Gaussian, Inc.),
 the Gaussian 88(TM) system (copyright 1988, Gaussian, Inc.),
 the Gaussian 86(TM) system (copyright 1986, Carnegie Mellon
 University), and the Gaussian 82(TM) system (copyright 1983,
 Carnegie Mellon University). Gaussian is a federally registered
 trademark of Gaussian, Inc.
  
 This software contains proprietary and confidential information,
 including trade secrets, belonging to Gaussian, Inc.
  
 This software is provided under written license and may be
 used, copied, transmitted, or stored only in accord with that
 written license.
  
 The following legend is applicable only to US Government
 contracts under FAR:
  
                    RESTRICTED RIGHTS LEGEND
  
 Use, reproduction and disclosure by the US Government is
 subject to restrictions as set forth in subparagraphs (a)
 and (c) of the Commercial Computer Software - Restricted
 Rights clause in FAR 52.227-19.
  
 Gaussian, Inc.
 340 Quinnipiac St., Bldg. 40, Wallingford CT 06492
  
  
 ---------------------------------------------------------------
 Warning -- This program may not be used in any manner that
 competes with the business of Gaussian, Inc. or will provide
 assistance to any competitor of Gaussian, Inc.  The licensee
 of this program is prohibited from giving any competitor of
 Gaussian, Inc. access to this program.  By using this program,
 the user acknowledges that Gaussian, Inc. is engaged in the
 business of creating and licensing software in the field of
 computational chemistry and represents and warrants to the
 licensee that it is not a competitor of Gaussian, Inc. and that
 it will not use this program in any manner prohibited above.
 ---------------------------------------------------------------
  

 Cite this work as:
 Gaussian 09, Revision C.01,
 M. J. Frisch, G. W. Trucks, H. B. Schlegel, G. E. Scuseria, 
 M. A. Robb, J. R. Cheeseman, G. Scalmani, V. Barone, B. Mennucci, 
 G. A. Petersson, H. Nakatsuji, M. Caricato, X. Li, H. P. Hratchian, 
 A. F. Izmaylov, J. Bloino, G. Zheng, J. L. Sonnenberg, M. Hada, 
 M. Ehara, K. Toyota, R. Fukuda, J. Hasegawa, M. Ishida, T. Nakajima, 
 Y. Honda, O. Kitao, H. Nakai, T. Vreven, J. A. Montgomery, Jr., 
 J. E. Peralta, F. Ogliaro, M. Bearpark, J. J. Heyd, E. Brothers, 
 K. N. Kudin, V. N. Staroverov, T. Keith, R. Kobayashi, J. Normand, 
 K. Raghavachari, A. Rendell, J. C. Burant, S. S. Iyengar, J. Tomasi, 
 M. Cossi, N. Rega, J. M. Millam, M. Klene, J. E. Knox, J. B. Cross, 
 V. Bakken, C. Adamo, J. Jaramillo, R. Gomperts, R. E. Stratmann, 
 O. Yazyev, A. J. Austin, R. Cammi, C. Pomelli, J. W. Ochterski, 
 R. L. Martin, K. Morokuma, V. G. Zakrzewski, G. A. Voth, 
 P. Salvador, J. J. Dannenberg, S. Dapprich, A. D. Daniels, 
 O. Farkas, J. B. Foresman, J. V. Ortiz, J. Cioslowski, 
 and D. J. Fox, Gaussian, Inc., Wallingford CT, 2010.
 
 ******************************************
 Gaussian 09:  EM64L-G09RevC.01 23-Sep-2011
                12-Apr-2019 
 ******************************************
 %nprocshared=4
 Will use up to    4 processors via shared memory.
 ------------------------------------------------
 # mpw1pw91/6-31+g** nmr scrf=(pcm,solvent=water)
 ------------------------------------------------
 1/38=1/1;
 2/12=2,17=6,18=5,40=1/2;
 3/5=1,6=6,7=111,11=2,16=1,25=1,30=1,70=2201,72=1,74=-7/1,2,8,3;
 4//1;
 5/5=2,38=5,53=1/2;
 8/6=1,10=90,11=11/1;
 10/13=100,45=16/2;
 6/7=2,8=2,9=2,10=2,28=1/1;
 99/9=1/99;
 -------
 comment
 -------
 Charge =  0 Multiplicity = 1
 Symbolic Z-Matrix:
 6                    -0.5224    1.34353   1.15465 
 6                    -1.01188   1.15017  -0.28986 
 6                     1.19902   0.96249  -0.32002 
 6                    -0.09587  -1.23631  -0.42983 
 6                     1.26042  -0.53257  -0.68141 
 6                    -1.30902  -0.30173  -0.6894 
 8                     0.13962   1.56834  -1.04373 
 8                     0.90379   1.16433   1.05688 
 8                    -2.43486  -0.75456   0.07093 
 8                    -0.1073   -1.67301   0.92812 
 8                     2.3056   -1.18921   0.01599 
 1                    -0.94301   0.6203    1.85555 
 1                    -0.7292    2.35922   1.50876 
 1                    -1.85182   1.797    -0.54933 
 1                     2.1372    1.46881  -0.56293 
 1                    -0.17131  -2.11466  -1.08871 
 1                     1.50266  -0.59301  -1.74779 
 1                    -1.54117  -0.30049  -1.76017 
 1                    -2.88787  -1.44887  -0.4349 
 1                    -1.05232  -1.71281   1.17103 
 1                     1.96043  -1.31615   0.91812 
 
                          Input orientation:                          
 ---------------------------------------------------------------------
 Center     Atomic      Atomic             Coordinates (Angstroms)
 Number     Number       Type             X           Y           Z
 ---------------------------------------------------------------------
      1          6           0       -0.522404    1.343533    1.154651
      2          6           0       -1.011881    1.150165   -0.289861
      3          6           0        1.199018    0.962493   -0.320017
      4          6           0       -0.095874   -1.236306   -0.429827
      5          6           0        1.260421   -0.532571   -0.681411
      6          6           0       -1.309015   -0.301728   -0.689397
      7          8           0        0.139623    1.568337   -1.043734
      8          8           0        0.903791    1.164333    1.056876
      9          8           0       -2.434858   -0.754562    0.070934
     10          8           0       -0.107299   -1.673008    0.928124
     11          8           0        2.305595   -1.189209    0.015993
     12          1           0       -0.943008    0.620302    1.855549
     13          1           0       -0.729203    2.359217    1.508759
     14          1           0       -1.851816    1.797004   -0.549334
     15          1           0        2.137204    1.468813   -0.562927
     16          1           0       -0.171311   -2.114656   -1.088708
     17          1           0        1.502663   -0.593006   -1.747787
     18          1           0       -1.541174   -0.300487   -1.760171
     19          1           0       -2.887869   -1.448872   -0.434895
     20          1           0       -1.052321   -1.712813    1.171031
     21          1           0        1.960433   -1.316149    0.918118
 ---------------------------------------------------------------------
                    Distance matrix (angstroms):
                    1          2          3          4          5
     1  C    0.000000
     2  C    1.537398   0.000000
     3  C    2.298506   2.219055   0.000000
     4  C    3.057461   2.560059   2.554118   0.000000
     5  C    3.173225   2.854517   1.539348   1.548571   0.000000
     6  C    2.593483   1.534898   2.832830   1.553230   2.579797
     7  O    2.306884   1.438455   1.418848   2.880688   2.408585
     8  O    1.440731   2.341730   1.422580   2.995444   2.455262
     9  O    3.038737   2.404791   4.038091   2.440017   3.777617
    10  O    3.053383   3.205006   3.195338   1.426489   2.400387
    11  O    3.963446   4.070855   2.442793   2.442955   1.417722
    12  H    1.091434   2.210946   3.072207   3.063915   3.552518
    13  H    1.095341   2.185577   3.002215   4.133643   4.137377
    14  H    2.208288   1.091429   3.171212   3.506934   3.889779
    15  H    3.168483   3.176923   1.093416   3.510274   2.188224
    16  H    4.137028   3.464646   3.455074   1.100597   2.172266
    17  H    4.034257   3.389266   2.133144   2.169372   1.095213
    18  H    3.498125   2.132218   3.343324   2.175882   3.011066
    19  H    3.989938   3.208638   4.746633   2.800080   4.255430
    20  H    3.101988   3.214418   3.801186   1.924733   3.189559
    21  H    3.646140   4.046797   2.702765   2.460026   1.913767
                    6          7          8          9         10
     6  C    0.000000
     7  O    2.391913   0.000000
     8  O    3.177312   2.271505   0.000000
     9  O    1.432021   3.642293   3.975024   0.000000
    10  O    2.437397   3.802040   3.014861   2.644967   0.000000
    11  O    3.788219   3.663129   2.930470   4.760654   2.624519
    12  H    2.731456   3.236773   2.084350   2.701984   2.611091
    13  H    3.499814   2.809906   2.073310   3.830433   4.121012
    14  H    2.172309   2.064594   3.251700   2.689825   4.155383
    15  H    3.876498   2.057039   2.058586   5.123371   4.139090
    16  H    2.177275   3.696368   4.063391   2.884141   2.065614
    17  H    3.018371   2.650466   3.363484   4.340267   3.304373
    18  H    1.095653   2.613592   4.007406   2.087535   3.341667
    19  H    1.968119   4.317400   4.840548   0.971158   3.104775
    20  H    2.349095   4.134230   3.481002   2.009942   0.976553
    21  H    3.781857   3.935031   2.699729   4.511284   2.098324
                   11         12         13         14         15
    11  O    0.000000
    12  H    4.148701   0.000000
    13  H    4.902007   1.786001   0.000000
    14  H    5.149867   2.827370   2.410828   0.000000
    15  H    2.725543   4.007082   3.647052   4.002521   0.000000
    16  H    2.865638   4.091963   5.203231   4.291399   4.294990
    17  H    2.027579   4.520780   4.929700   4.289635   2.461226
    18  H    4.329228   3.778768   4.291763   2.441740   4.253737
    19  H    5.219463   3.648301   4.789486   3.409137   5.812111
    20  H    3.589411   2.433915   4.098767   3.989695   4.827258
    21  H    0.974207   3.613667   4.592528   5.135989   3.159233
                   16         17         18         19         20
    16  H    0.000000
    17  H    2.356267   0.000000
    18  H    2.370358   3.057886   0.000000
    19  H    2.872356   4.661863   2.211048   0.000000
    20  H    2.458470   4.037500   3.290226   2.453141   0.000000
    21  H    3.034682   2.799918   4.523942   5.035305   3.049261
                   21
    21  H    0.000000
 Stoichiometry    C6H10O5
 Framework group  C1[X(C6H10O5)]
 Deg. of freedom    57
 Full point group                 C1      NOp   1
 Largest Abelian subgroup         C1      NOp   1
 Largest concise Abelian subgroup C1      NOp   1
                         Standard orientation:                         
 ---------------------------------------------------------------------
 Center     Atomic      Atomic             Coordinates (Angstroms)
 Number     Number       Type             X           Y           Z
 ---------------------------------------------------------------------
      1          6           0       -0.522404    1.343533    1.154651
      2          6           0       -1.011881    1.150165   -0.289861
      3          6           0        1.199018    0.962493   -0.320017
      4          6           0       -0.095875   -1.236306   -0.429827
      5          6           0        1.260421   -0.532571   -0.681411
      6          6           0       -1.309015   -0.301727   -0.689397
      7          8           0        0.139624    1.568337   -1.043734
      8          8           0        0.903791    1.164333    1.056876
      9          8           0       -2.434858   -0.754561    0.070934
     10          8           0       -0.107300   -1.673008    0.928124
     11          8           0        2.305595   -1.189210    0.015993
     12          1           0       -0.943008    0.620302    1.855549
     13          1           0       -0.729202    2.359217    1.508759
     14          1           0       -1.851815    1.797005   -0.549334
     15          1           0        2.137205    1.468812   -0.562927
     16          1           0       -0.171312   -2.114656   -1.088708
     17          1           0        1.502663   -0.593007   -1.747787
     18          1           0       -1.541174   -0.300486   -1.760171
     19          1           0       -2.887870   -1.448871   -0.434895
     20          1           0       -1.052322   -1.712813    1.171031
     21          1           0        1.960432   -1.316150    0.918118
 ---------------------------------------------------------------------
 Rotational constants (GHZ):      1.5348653      1.2943811      0.9611614
 Standard basis: 6-31+G(d,p) (6D, 7F)
 There are   259 symmetry adapted basis functions of A   symmetry.
 Integral buffers will be    131072 words long.
 Raffenetti 2 integral format.
 Two-electron integral symmetry is turned on.
   259 basis functions,   422 primitive gaussians,   259 cartesian basis functions
    43 alpha electrons       43 beta electrons
       nuclear repulsion energy       734.2903772397 Hartrees.
 NAtoms=   21 NActive=   21 NUniq=   21 SFac= 1.00D+00 NAtFMM=   60 NAOKFM=F Big=F
 ------------------------------------------------------------------------------
 Polarizable Continuum Model (PCM)
 =================================
 Model                : PCM.
 Atomic radii         : UFF (Universal Force Field).
 Polarization charges : Total charges.
 Charge compensation  : None.
 Solution method      : Matrix inversion.
 Cavity type          : Scaled VdW (van der Waals Surface) (Alpha=1.100).
 Cavity algorithm     : GePol (No added spheres)
                        Default sphere list used, NSphG=   21.
                        Lebedev-Laikov grids with approx.  5.0 points / Ang**2.
                        Smoothing algorithm: Karplus/York (Gamma=1.0000).
                        Polarization charges: spherical gaussians, with
                                              point-specific exponents (IZeta= 3).
                        Self-potential: point-specific (ISelfS= 7).
                        Self-field    : sphere-specific E.n sum rule (ISelfD= 2).
 Solvent              : Water, Eps=  78.355300 Eps(inf)=   1.777849
 ------------------------------------------------------------------------------
 One-electron integrals computed using PRISM.
 NBasis=   259 RedAO= T  NBF=   259
 NBsUse=   259 1.00D-06 NBFU=   259
 Harris functional with IExCor=  908 diagonalized for initial guess.
 ExpMin= 4.38D-02 ExpMax= 5.48D+03 ExpMxC= 8.25D+02 IAcc=2 IRadAn=         4 AccDes= 0.00D+00
 HarFok:  IExCor=  908 AccDes= 0.00D+00 IRadAn=         4 IDoV= 1
 ScaDFX=  1.000000  1.000000  1.000000  1.000000
 FoFCou: FMM=F IPFlag=           0 FMFlag=      100000 FMFlg1=           0
         NFxFlg=           0 DoJE=T BraDBF=F KetDBF=T FulRan=T
         Omega=  0.000000  0.000000  1.000000  0.000000  0.000000 ICntrl=     500 IOpCl=  0
         NMat0=    1 NMatS0=    1 NMatT0=    0 NMatD0=    1 NMtDS0=    0 NMtDT0=    0
         I1Cent=           4 NGrid=           0.
 Petite list used in FoFCou.
 Initial guess orbital symmetries:
       Occupied  (A) (A) (A) (A) (A) (A) (A) (A) (A) (A) (A) (A)
                 (A) (A) (A) (A) (A) (A) (A) (A) (A) (A) (A) (A)
                 (A) (A) (A) (A) (A) (A) (A) (A) (A) (A) (A) (A)
                 (A) (A) (A) (A) (A) (A) (A)
       Virtual   (A) (A) (A) (A) (A) (A) (A) (A) (A) (A) (A) (A)
                 (A) (A) (A) (A) (A) (A) (A) (A) (A) (A) (A) (A)
                 (A) (A) (A) (A) (A) (A) (A) (A) (A) (A) (A) (A)
                 (A) (A) (A) (A) (A) (A) (A) (A) (A) (A) (A) (A)
                 (A) (A) (A) (A) (A) (A) (A) (A) (A) (A) (A) (A)
                 (A) (A) (A) (A) (A) (A) (A) (A) (A) (A) (A) (A)
                 (A) (A) (A) (A) (A) (A) (A) (A) (A) (A) (A) (A)
                 (A) (A) (A) (A) (A) (A) (A) (A) (A) (A) (A) (A)
                 (A) (A) (A) (A) (A) (A) (A) (A) (A) (A) (A) (A)
                 (A) (A) (A) (A) (A) (A) (A) (A) (A) (A) (A) (A)
                 (A) (A) (A) (A) (A) (A) (A) (A) (A) (A) (A) (A)
                 (A) (A) (A) (A) (A) (A) (A) (A) (A) (A) (A) (A)
                 (A) (A) (A) (A) (A) (A) (A) (A) (A) (A) (A) (A)
                 (A) (A) (A) (A) (A) (A) (A) (A) (A) (A) (A) (A)
                 (A) (A) (A) (A) (A) (A) (A) (A) (A) (A) (A) (A)
                 (A) (A) (A) (A) (A) (A) (A) (A) (A) (A) (A) (A)
                 (A) (A) (A) (A) (A) (A) (A) (A) (A) (A) (A) (A)
                 (A) (A) (A) (A) (A) (A) (A) (A) (A) (A) (A) (A)
 The electronic state of the initial guess is 1-A.
 Requested convergence on RMS density matrix=1.00D-08 within 128 cycles.
 Requested convergence on MAX density matrix=1.00D-06.
 Requested convergence on             energy=1.00D-06.
 No special actions if energy rises.
 Error on total polarization charges =  0.01151
 SCF Done:  E(RmPW1PW91) =  -610.650214235     A.U. after   12 cycles
             Convg  =    0.8065D-08             -V/T =  2.0090
 Range of M.O.s used for correlation:     1   259
 NBasis=   259 NAE=    43 NBE=    43 NFC=     0 NFV=     0
 NROrb=    259 NOA=    43 NOB=    43 NVA=   216 NVB=   216

 **** Warning!!: The largest alpha MO coefficient is  0.76343761D+02

 NEqPCM:  Using equilibrium solvation (IEInf=0, Eps=  78.3553, EpsInf=   1.7778)
          Differentiating once with respect to magnetic field using GIAOs.
          Electric field/nuclear overlap derivatives assumed to be zero.
 FoFCou: FMM=F IPFlag=           0 FMFlag=    10101102 FMFlg1=           0
         NFxFlg=    40000000 DoJE=F BraDBF=F KetDBF=T FulRan=T
         Omega=  0.000000  0.000000  1.000000  0.000000  0.000000 ICntrl=    6100 IOpCl=  0
         NMat0=    1 NMatS0=    1 NMatT0=    0 NMatD0=    1 NMtDS0=    0 NMtDT0=    0
         I1Cent=           7 NGrid=        1533.
 Symmetry not used in FoFCou.
          There are     3 degrees of freedom in the 1st order CPHF.  IDoFFX=0.
      3 vectors produced by pass  0 Test12= 3.10D-13 3.33D-08 XBig12= 2.19D+01 6.78D-01.
 AX will form     3 AO Fock derivatives at one time.
      3 vectors produced by pass  1 Test12= 3.10D-13 3.33D-08 XBig12= 5.04D-02 2.66D-02.
      3 vectors produced by pass  2 Test12= 3.10D-13 3.33D-08 XBig12= 1.07D-04 1.52D-03.
      3 vectors produced by pass  3 Test12= 3.10D-13 3.33D-08 XBig12= 5.22D-07 1.33D-04.
      3 vectors produced by pass  4 Test12= 3.10D-13 3.33D-08 XBig12= 1.58D-09 5.38D-06.
      3 vectors produced by pass  5 Test12= 3.10D-13 3.33D-08 XBig12= 4.67D-12 3.75D-07.
 Inverted reduced A of dimension    18 with in-core refinement.
 Calculating GIAO nuclear magnetic shielding tensors.
 SCF GIAO Magnetic shielding tensor (ppm):
      1  C    Isotropic =   130.6928   Anisotropy =    66.7144
   XX=   173.2611   YX=   -10.4695   ZX=     3.3180
   XY=   -12.8737   YY=   103.5871   ZY=     6.5118
   XZ=    -1.0956   YZ=     0.5294   ZZ=   115.2301
   Eigenvalues:   100.7611   116.1482   175.1690
      2  C    Isotropic =   120.6258   Anisotropy =    58.5616
   XX=   139.0656   YX=    15.9882   ZX=   -25.1770
   XY=    24.6509   YY=   101.3654   ZY=    -3.3178
   XZ=   -16.1660   YZ=    -7.6243   ZZ=   121.4463
   Eigenvalues:    92.0057   110.2047   159.6668
      3  C    Isotropic =    92.5114   Anisotropy =    25.7161
   XX=    89.2827   YX=   -12.0404   ZX=     9.1818
   XY=   -24.2517   YY=    79.0002   ZY=     0.2374
   XZ=    -5.3059   YZ=    -0.3544   ZZ=   109.2514
   Eigenvalues:    65.2525   102.6263   109.6555
      4  C    Isotropic =   125.7781   Anisotropy =    34.5518
   XX=   115.2361   YX=    -0.9880   ZX=    -1.2923
   XY=    -0.1884   YY=   117.6852   ZY=   -17.2867
   XZ=     0.6069   YZ=    -6.1171   ZZ=   144.4131
   Eigenvalues:   113.0773   115.4444   148.8127
      5  C    Isotropic =   124.5604   Anisotropy =    39.5634
   XX=   127.4754   YX=   -11.2565   ZX=    13.0142
   XY=   -16.0615   YY=   129.8744   ZY=    -4.4130
   XZ=    20.1153   YZ=   -10.9579   ZZ=   116.3315
   Eigenvalues:   104.2665   118.4787   150.9361
      6  C    Isotropic =   126.5931   Anisotropy =    47.2226
   XX=   137.7651   YX=     8.2961   ZX=   -16.1698
   XY=    16.7293   YY=   126.0923   ZY=    -9.3586
   XZ=   -23.0778   YZ=   -13.9145   ZZ=   115.9220
   Eigenvalues:   103.5575   118.1470   158.0749
      7  O    Isotropic =   234.5844   Anisotropy =    70.6559
   XX=   235.2277   YX=   -30.1076   ZX=    10.3331
   XY=   -29.5609   YY=   187.1927   ZY=    -7.3734
   XZ=   -11.0885   YZ=    -3.4175   ZZ=   281.3329
   Eigenvalues:   172.6768   249.3881   281.6884
      8  O    Isotropic =   272.0116   Anisotropy =    93.6911
   XX=   297.5223   YX=   -29.1644   ZX=    -3.5395
   XY=   -35.8648   YY=   188.7599   ZY=    10.4921
   XZ=    29.6973   YZ=     6.0242   ZZ=   329.7526
   Eigenvalues:   178.9081   302.6544   334.4723
      9  O    Isotropic =   308.3560   Anisotropy =    78.9333
   XX=   311.7663   YX=    26.5745   ZX=     0.4363
   XY=    42.4909   YY=   327.3094   ZY=     8.3587
   XZ=    16.0216   YZ=    32.8042   ZZ=   285.9923
   Eigenvalues:   275.5258   288.5640   360.9782
     10  O    Isotropic =   317.3842   Anisotropy =    45.1132
   XX=   336.9969   YX=     0.8484   ZX=   -10.2024
   XY=    -7.1598   YY=   297.4475   ZY=    46.6634
   XZ=   -15.7507   YZ=    -2.7214   ZZ=   317.7082
   Eigenvalues:   283.0127   321.6802   347.4597
     11  O    Isotropic =   308.8678   Anisotropy =    22.5415
   XX=   315.1220   YX=    -9.7291   ZX=     0.5858
   XY=   -12.6520   YY=   306.5563   ZY=    -6.0513
   XZ=   -10.5330   YZ=     7.4369   ZZ=   304.9252
   Eigenvalues:   298.0264   304.6816   323.8955
     12  H    Isotropic =    27.2962   Anisotropy =     4.8076
   XX=    26.9306   YX=     1.7586   ZX=    -3.5549
   XY=     0.6530   YY=    26.6292   ZY=     0.0895
   XZ=    -1.9804   YZ=     1.1653   ZZ=    28.3287
   Eigenvalues:    24.0733    27.3140    30.5012
     13  H    Isotropic =    27.7574   Anisotropy =    11.3893
   XX=    27.6640   YX=    -4.4005   ZX=    -1.7620
   XY=    -3.2356   YY=    30.1227   ZY=     5.5713
   XZ=    -1.1925   YZ=     4.2596   ZZ=    25.4854
   Eigenvalues:    22.2102    25.7116    35.3503
     14  H    Isotropic =    27.1680   Anisotropy =     7.8113
   XX=    29.7131   YX=    -2.9651   ZX=     2.0771
   XY=    -3.0909   YY=    27.8558   ZY=    -1.4693
   XZ=     0.6675   YZ=    -1.1785   ZZ=    23.9351
   Eigenvalues:    23.4840    25.6445    32.3755
     15  H    Isotropic =    26.2619   Anisotropy =     7.9520
   XX=    29.0861   YX=     2.3743   ZX=    -2.1816
   XY=     2.7994   YY=    25.0141   ZY=    -0.8242
   XZ=    -3.0628   YZ=    -1.6445   ZZ=    24.6854
   Eigenvalues:    23.4609    23.7615    31.5632
     16  H    Isotropic =    27.4129   Anisotropy =     9.5692
   XX=    23.5200   YX=     0.1289   ZX=     0.4004
   XY=     0.3611   YY=    28.0587   ZY=     3.3367
   XZ=     0.0724   YZ=     5.1161   ZZ=    30.6601
   Eigenvalues:    23.5068    24.9396    33.7924
     17  H    Isotropic =    28.0579   Anisotropy =     6.1576
   XX=    27.3646   YX=    -2.3974   ZX=    -1.1036
   XY=    -1.8065   YY=    25.7152   ZY=     0.6128
   XZ=    -2.8350   YZ=     0.0634   ZZ=    31.0938
   Eigenvalues:    24.1709    27.8397    32.1629
     18  H    Isotropic =    27.4743   Anisotropy =     6.0081
   XX=    27.1055   YX=     1.9637   ZX=     0.9741
   XY=     1.0676   YY=    24.5810   ZY=     0.0132
   XZ=     2.6201   YZ=    -0.9014   ZZ=    30.7364
   Eigenvalues:    23.6645    27.2787    31.4797
     19  H    Isotropic =    29.7047   Anisotropy =    22.4129
   XX=    31.7586   YX=    10.1091   ZX=     3.7177
   XY=    10.4411   YY=    31.2734   ZY=     6.6384
   XZ=     4.4468   YZ=     5.7722   ZZ=    26.0822
   Eigenvalues:    20.4440    24.0235    44.6467
     20  H    Isotropic =    27.9123   Anisotropy =    17.5790
   XX=    38.6830   YX=     0.2463   ZX=    -3.0291
   XY=    -0.6497   YY=    21.2570   ZY=    -6.1367
   XZ=    -4.4561   YZ=    -4.3142   ZZ=    23.7971
   Eigenvalues:    16.8600    27.2453    39.6317
     21  H    Isotropic =    28.4541   Anisotropy =    14.5433
   XX=    28.1503   YX=    -1.0423   ZX=    -3.2681
   XY=    -0.8586   YY=    21.1030   ZY=    -4.4991
   XZ=    -2.6437   YZ=    -4.9583   ZZ=    36.1092
   Eigenvalues:    19.3796    27.8331    38.1496
 End of Minotr Frequency-dependent properties file   721 does not exist.
 End of Minotr Frequency-dependent properties file   722 does not exist.

 **********************************************************************

            Population analysis using the SCF density.

 **********************************************************************

 Orbital symmetries:
       Occupied  (A) (A) (A) (A) (A) (A) (A) (A) (A) (A) (A) (A)
                 (A) (A) (A) (A) (A) (A) (A) (A) (A) (A) (A) (A)
                 (A) (A) (A) (A) (A) (A) (A) (A) (A) (A) (A) (A)
                 (A) (A) (A) (A) (A) (A) (A)
       Virtual   (A) (A) (A) (A) (A) (A) (A) (A) (A) (A) (A) (A)
                 (A) (A) (A) (A) (A) (A) (A) (A) (A) (A) (A) (A)
                 (A) (A) (A) (A) (A) (A) (A) (A) (A) (A) (A) (A)
                 (A) (A) (A) (A) (A) (A) (A) (A) (A) (A) (A) (A)
                 (A) (A) (A) (A) (A) (A) (A) (A) (A) (A) (A) (A)
                 (A) (A) (A) (A) (A) (A) (A) (A) (A) (A) (A) (A)
                 (A) (A) (A) (A) (A) (A) (A) (A) (A) (A) (A) (A)
                 (A) (A) (A) (A) (A) (A) (A) (A) (A) (A) (A) (A)
                 (A) (A) (A) (A) (A) (A) (A) (A) (A) (A) (A) (A)
                 (A) (A) (A) (A) (A) (A) (A) (A) (A) (A) (A) (A)
                 (A) (A) (A) (A) (A) (A) (A) (A) (A) (A) (A) (A)
                 (A) (A) (A) (A) (A) (A) (A) (A) (A) (A) (A) (A)
                 (A) (A) (A) (A) (A) (A) (A) (A) (A) (A) (A) (A)
                 (A) (A) (A) (A) (A) (A) (A) (A) (A) (A) (A) (A)
                 (A) (A) (A) (A) (A) (A) (A) (A) (A) (A) (A) (A)
                 (A) (A) (A) (A) (A) (A) (A) (A) (A) (A) (A) (A)
                 (A) (A) (A) (A) (A) (A) (A) (A) (A) (A) (A) (A)
                 (A) (A) (A) (A) (A) (A) (A) (A) (A) (A) (A) (A)
 The electronic state is 1-A.
 Alpha  occ. eigenvalues --  -19.27902 -19.27849 -19.26647 -19.25972 -19.25948
 Alpha  occ. eigenvalues --  -10.35505 -10.32121 -10.31872 -10.31447 -10.31089
 Alpha  occ. eigenvalues --  -10.30398  -1.14232  -1.09241  -1.07362  -1.04910
 Alpha  occ. eigenvalues --   -1.04018  -0.82204  -0.80606  -0.70775  -0.68523
 Alpha  occ. eigenvalues --   -0.64257  -0.61101  -0.57360  -0.56051  -0.55068
 Alpha  occ. eigenvalues --   -0.51955  -0.50510  -0.48976  -0.47335  -0.46256
 Alpha  occ. eigenvalues --   -0.44369  -0.43536  -0.42909  -0.39780  -0.38506
 Alpha  occ. eigenvalues --   -0.37789  -0.36899  -0.36294  -0.33919  -0.31813
 Alpha  occ. eigenvalues --   -0.31034  -0.29625  -0.26873
 Alpha virt. eigenvalues --    0.00002   0.01738   0.02123   0.02469   0.04411
 Alpha virt. eigenvalues --    0.04741   0.04911   0.05146   0.05966   0.08350
 Alpha virt. eigenvalues --    0.08950   0.09423   0.10469   0.10851   0.11797
 Alpha virt. eigenvalues --    0.12102   0.12434   0.13202   0.14001   0.14759
 Alpha virt. eigenvalues --    0.15479   0.15794   0.16672   0.17158   0.17632
 Alpha virt. eigenvalues --    0.17877   0.18532   0.19576   0.20309   0.21242
 Alpha virt. eigenvalues --    0.21500   0.21837   0.22622   0.22955   0.23747
 Alpha virt. eigenvalues --    0.24725   0.25211   0.26053   0.26106   0.27013
 Alpha virt. eigenvalues --    0.27570   0.28560   0.29954   0.30633   0.31083
 Alpha virt. eigenvalues --    0.31570   0.32461   0.32759   0.33928   0.34355
 Alpha virt. eigenvalues --    0.34766   0.35755   0.36526   0.36826   0.37652
 Alpha virt. eigenvalues --    0.37915   0.38303   0.39305   0.39784   0.40457
 Alpha virt. eigenvalues --    0.41926   0.42799   0.43645   0.45816   0.47520
 Alpha virt. eigenvalues --    0.48303   0.65041   0.66823   0.67729   0.69738
 Alpha virt. eigenvalues --    0.70429   0.72130   0.74087   0.75369   0.76266
 Alpha virt. eigenvalues --    0.80424   0.82008   0.82741   0.83177   0.85211
 Alpha virt. eigenvalues --    0.88003   0.92359   0.96779   0.97647   1.00043
 Alpha virt. eigenvalues --    1.01625   1.03972   1.04543   1.06666   1.07140
 Alpha virt. eigenvalues --    1.09442   1.10216   1.10914   1.12683   1.14254
 Alpha virt. eigenvalues --    1.16874   1.19759   1.22989   1.25786   1.28210
 Alpha virt. eigenvalues --    1.28559   1.30617   1.31703   1.32698   1.34033
 Alpha virt. eigenvalues --    1.35667   1.36617   1.37775   1.38404   1.42283
 Alpha virt. eigenvalues --    1.42824   1.45479   1.47552   1.49617   1.51729
 Alpha virt. eigenvalues --    1.52861   1.55113   1.57042   1.58959   1.60774
 Alpha virt. eigenvalues --    1.63111   1.64681   1.65500   1.68529   1.69331
 Alpha virt. eigenvalues --    1.70870   1.72837   1.74051   1.76442   1.77722
 Alpha virt. eigenvalues --    1.79253   1.85040   1.85454   1.88307   1.91178
 Alpha virt. eigenvalues --    1.91706   1.93296   1.95549   1.98281   1.99976
 Alpha virt. eigenvalues --    2.00570   2.03279   2.04608   2.07628   2.08513
 Alpha virt. eigenvalues --    2.09975   2.13209   2.13315   2.17168   2.18379
 Alpha virt. eigenvalues --    2.20042   2.21632   2.23440   2.27013   2.30416
 Alpha virt. eigenvalues --    2.32032   2.36108   2.37412   2.41166   2.41930
 Alpha virt. eigenvalues --    2.45935   2.47047   2.49444   2.51010   2.52124
 Alpha virt. eigenvalues --    2.54440   2.56342   2.58862   2.60279   2.63266
 Alpha virt. eigenvalues --    2.64877   2.65810   2.69014   2.69883   2.72046
 Alpha virt. eigenvalues --    2.74058   2.74291   2.76956   2.80660   2.81186
 Alpha virt. eigenvalues --    2.82599   2.86191   2.86751   2.87663   2.90726
 Alpha virt. eigenvalues --    2.91805   2.95413   2.99686   3.02762   3.04347
 Alpha virt. eigenvalues --    3.05439   3.07827   3.10782   3.13178   3.15439
 Alpha virt. eigenvalues --    3.35915   3.43633   3.44887   3.47323   3.47931
 Alpha virt. eigenvalues --    3.51271   3.53020   3.54134   3.60083   3.61055
 Alpha virt. eigenvalues --    4.28180   4.36855   4.41387   4.46210   4.49989
 Alpha virt. eigenvalues --    4.55423   4.63398   4.82444   4.90909   4.93336
 Alpha virt. eigenvalues --    4.97554
          Condensed to atoms (all electrons):
              1          2          3          4          5          6
     1  C    5.707713  -0.557356  -0.622440  -0.419110   0.543332   0.295154
     2  C   -0.557356   7.545005  -0.168972   0.631958  -0.426697  -1.090469
     3  C   -0.622440  -0.168972   7.566703   0.543453  -1.995803   0.105974
     4  C   -0.419110   0.631958   0.543453   6.935881  -1.209800  -0.857185
     5  C    0.543332  -0.426697  -1.995803  -1.209800   8.475910   0.083948
     6  C    0.295154  -1.090469   0.105974  -0.857185   0.083948   7.147979
     7  O   -0.021461   0.082505   0.275158  -0.055645  -0.062966  -0.046854
     8  O    0.190053  -0.104585   0.301590   0.061895  -0.164280  -0.049677
     9  O    0.076248  -0.191121  -0.047312  -0.157663   0.110828   0.228914
    10  O    0.044417  -0.043155   0.011018   0.180363  -0.173033   0.050082
    11  O    0.019386  -0.033365  -0.174646  -0.134713   0.384930   0.045231
    12  H    0.492821  -0.199145   0.020782  -0.029850   0.017183   0.044743
    13  H    0.379775   0.009385  -0.021263  -0.003868   0.005517   0.018324
    14  H    0.014066   0.270452  -0.007021  -0.003902   0.016284   0.039518
    15  H    0.009842   0.034192   0.311974   0.012807   0.007338  -0.005225
    16  H   -0.005205   0.000729   0.023210   0.294562  -0.046300   0.063800
    17  H    0.000574   0.009565  -0.044134  -0.012242   0.396417  -0.023962
    18  H    0.004582   0.004700   0.000878   0.031026  -0.000716   0.272346
    19  H   -0.006404   0.033076   0.002177  -0.036616  -0.001346   0.020573
    20  H    0.000650   0.001036  -0.010018   0.025986   0.027660  -0.068414
    21  H    0.002286  -0.001067  -0.013063  -0.039312   0.035142  -0.003474
              7          8          9         10         11         12
     1  C   -0.021461   0.190053   0.076248   0.044417   0.019386   0.492821
     2  C    0.082505  -0.104585  -0.191121  -0.043155  -0.033365  -0.199145
     3  C    0.275158   0.301590  -0.047312   0.011018  -0.174646   0.020782
     4  C   -0.055645   0.061895  -0.157663   0.180363  -0.134713  -0.029850
     5  C   -0.062966  -0.164280   0.110828  -0.173033   0.384930   0.017183
     6  C   -0.046854  -0.049677   0.228914   0.050082   0.045231   0.044743
     7  O    8.212627  -0.039931   0.013870   0.007953   0.006799   0.013721
     8  O   -0.039931   8.298762  -0.004907  -0.005216   0.012599  -0.044599
     9  O    0.013870  -0.004907   8.355171  -0.033830  -0.000802   0.009984
    10  O    0.007953  -0.005216  -0.033830   8.369945  -0.007690  -0.000938
    11  O    0.006799   0.012599  -0.000802  -0.007690   8.195175   0.000163
    12  H    0.013721  -0.044599   0.009984  -0.000938   0.000163   0.528245
    13  H   -0.003672  -0.053200  -0.002509   0.001176  -0.000089  -0.037553
    14  H   -0.026456   0.006505   0.005496  -0.000779   0.000074   0.002876
    15  H   -0.039127  -0.049047  -0.000090  -0.000411   0.001824  -0.000257
    16  H   -0.000718  -0.000354  -0.008801  -0.045901   0.000566  -0.000020
    17  H    0.001699   0.008978  -0.000518   0.005350  -0.057999  -0.000018
    18  H    0.000001  -0.001608  -0.028333   0.004183  -0.000300   0.000170
    19  H   -0.000570   0.000025   0.245280   0.002345  -0.000029   0.000038
    20  H   -0.000104  -0.001619   0.039703   0.242469   0.001581   0.000096
    21  H   -0.000599   0.008244  -0.000253   0.017137   0.249313  -0.000072
             13         14         15         16         17         18
     1  C    0.379775   0.014066   0.009842  -0.005205   0.000574   0.004582
     2  C    0.009385   0.270452   0.034192   0.000729   0.009565   0.004700
     3  C   -0.021263  -0.007021   0.311974   0.023210  -0.044134   0.000878
     4  C   -0.003868  -0.003902   0.012807   0.294562  -0.012242   0.031026
     5  C    0.005517   0.016284   0.007338  -0.046300   0.396417  -0.000716
     6  C    0.018324   0.039518  -0.005225   0.063800  -0.023962   0.272346
     7  O   -0.003672  -0.026456  -0.039127  -0.000718   0.001699   0.000001
     8  O   -0.053200   0.006505  -0.049047  -0.000354   0.008978  -0.001608
     9  O   -0.002509   0.005496  -0.000090  -0.008801  -0.000518  -0.028333
    10  O    0.001176  -0.000779  -0.000411  -0.045901   0.005350   0.004183
    11  O   -0.000089   0.000074   0.001824   0.000566  -0.057999  -0.000300
    12  H   -0.037553   0.002876  -0.000257  -0.000020  -0.000018   0.000170
    13  H    0.537055  -0.004012   0.000283   0.000005   0.000014  -0.000118
    14  H   -0.004012   0.497072   0.000022  -0.000130  -0.000024  -0.006595
    15  H    0.000283   0.000022   0.536860  -0.000142  -0.003408  -0.000061
    16  H    0.000005  -0.000130  -0.000142   0.564762  -0.004405  -0.003616
    17  H    0.000014  -0.000024  -0.003408  -0.004405   0.529664   0.000596
    18  H   -0.000118  -0.006595  -0.000061  -0.003616   0.000596   0.534800
    19  H   -0.000001  -0.000251  -0.000001   0.002101   0.000002  -0.008094
    20  H   -0.000006  -0.000027   0.000009  -0.000554  -0.000115   0.001027
    21  H    0.000010  -0.000001  -0.000262  -0.000034   0.006374  -0.000012
             19         20         21
     1  C   -0.006404   0.000650   0.002286
     2  C    0.033076   0.001036  -0.001067
     3  C    0.002177  -0.010018  -0.013063
     4  C   -0.036616   0.025986  -0.039312
     5  C   -0.001346   0.027660   0.035142
     6  C    0.020573  -0.068414  -0.003474
     7  O   -0.000570  -0.000104  -0.000599
     8  O    0.000025  -0.001619   0.008244
     9  O    0.245280   0.039703  -0.000253
    10  O    0.002345   0.242469   0.017137
    11  O   -0.000029   0.001581   0.249313
    12  H    0.000038   0.000096  -0.000072
    13  H   -0.000001  -0.000006   0.000010
    14  H   -0.000251  -0.000027  -0.000001
    15  H   -0.000001   0.000009  -0.000262
    16  H    0.002101  -0.000554  -0.000034
    17  H    0.000002  -0.000115   0.006374
    18  H   -0.008094   0.001027  -0.000012
    19  H    0.337585  -0.002856   0.000002
    20  H   -0.002856   0.335355   0.000027
    21  H    0.000002   0.000027   0.350515
 Mulliken atomic charges:
              1
     1  C   -0.148924
     2  C    0.193329
     3  C   -0.058247
     4  C    0.241976
     5  C   -0.023549
     6  C   -0.271325
     7  O   -0.316230
     8  O   -0.369628
     9  O   -0.609354
    10  O   -0.625486
    11  O   -0.508010
    12  H    0.181630
    13  H    0.174748
    14  H    0.196835
    15  H    0.182878
    16  H    0.166445
    17  H    0.187591
    18  H    0.195144
    19  H    0.412963
    20  H    0.408115
    21  H    0.389097
 Sum of Mulliken atomic charges =   0.00000
 Mulliken charges with hydrogens summed into heavy atoms:
              1
     1  C    0.207454
     2  C    0.390164
     3  C    0.124631
     4  C    0.408420
     5  C    0.164043
     6  C   -0.076181
     7  O   -0.316230
     8  O   -0.369628
     9  O   -0.196391
    10  O   -0.217370
    11  O   -0.118912
 Sum of Mulliken charges with hydrogens summed into heavy atoms =   0.00000
 Electronic spatial extent (au):  <R**2>=           1374.0895
 Charge=              0.0000 electrons
 Dipole moment (field-independent basis, Debye):
    X=             -5.4627    Y=             -0.8807    Z=             -2.1870  Tot=              5.9498
 Quadrupole moment (field-independent basis, Debye-Ang):
   XX=            -65.1148   YY=            -65.5303   ZZ=            -63.0623
   XY=              6.5013   XZ=              1.0105   YZ=              3.7928
 Traceless Quadrupole moment (field-independent basis, Debye-Ang):
   XX=             -0.5457   YY=             -0.9611   ZZ=              1.5068
   XY=              6.5013   XZ=              1.0105   YZ=              3.7928
 Octapole moment (field-independent basis, Debye-Ang**2):
  XXX=            -31.6714  YYY=             -4.6502  ZZZ=              2.8588  XYY=            -24.1582
  XXY=             -2.1302  XXZ=            -10.3933  XZZ=             -5.5571  YZZ=            -10.2401
  YYZ=              2.1802  XYZ=             -8.8024
 Hexadecapole moment (field-independent basis, Debye-Ang**3):
 XXXX=           -782.5852 YYYY=           -633.2526 ZZZZ=           -303.0971 XXXY=             82.9264
 XXXZ=             35.6067 YYYX=             27.3968 YYYZ=             13.7087 ZZZX=             -3.0818
 ZZZY=              0.1414 XXYY=           -198.8514 XXZZ=           -159.3306 YYZZ=           -156.3683
 XXYZ=             -9.0965 YYXZ=              2.7952 ZZXY=             -3.1915
 N-N= 7.342903772397D+02 E-N=-2.898608963866D+03  KE= 6.052084942337D+02
 1\1\GINC-COMPUTE-8-21\SP\RmPW1PW91\6-31+G(d,p)\C6H10O5\MMARCARINO.IQUI
 R\12-Apr-2019\0\\# mpw1pw91/6-31+g** nmr scrf=(pcm,solvent=water)\\com
 ment\\0,1\C,0,-0.522404,1.343533,1.154651\C,0,-1.011881,1.150165,-0.28
 9861\C,0,1.199018,0.962493,-0.320017\C,0,-0.095874,-1.236306,-0.429827
 \C,0,1.260421,-0.532571,-0.681411\C,0,-1.309015,-0.301728,-0.689397\O,
 0,0.139623,1.568337,-1.043734\O,0,0.903791,1.164333,1.056876\O,0,-2.43
 4858,-0.754562,0.070934\O,0,-0.107299,-1.673008,0.928124\O,0,2.305595,
 -1.189209,0.015993\H,0,-0.943008,0.620302,1.855549\H,0,-0.729203,2.359
 217,1.508759\H,0,-1.851816,1.797004,-0.549334\H,0,2.137204,1.468813,-0
 .562927\H,0,-0.171311,-2.114656,-1.088708\H,0,1.502663,-0.593006,-1.74
 7787\H,0,-1.541174,-0.300487,-1.760171\H,0,-2.887869,-1.448872,-0.4348
 95\H,0,-1.052321,-1.712813,1.171031\H,0,1.960433,-1.316149,0.918118\\V
 ersion=EM64L-G09RevC.01\State=1-A\HF=-610.6502142\RMSD=8.065e-09\Dipol
 e=-2.1491973,-0.3465098,-0.8604142\Quadrupole=-0.4057105,-0.7145586,1.
 1202691,4.8335294,0.7512439,2.8198572\PG=C01 [X(C6H10O5)]\\@


 TOM, TOM, THE BURGLAR'S SON
 STOLE A MACHINE AND AWAY HE RUN
 THE JOB WAS NEAT, BUT TOM GOT BEAT
 BY THE TIME HE GOT HOME IT WAS OBSOLETE.
 Job cpu time:  0 days  0 hours 18 minutes 58.4 seconds.
 File lengths (MBytes):  RWF=     83 Int=      0 D2E=      0 Chk=      5 Scr=      1
 Normal termination of Gaussian 09 at Fri Apr 12 12:05:14 2019.
