 Entering Gaussian System, Link 0=g09
 Input=/home/mmarcarino.iquir/NMR/06_SSS_Levo03_OPTB_nmr.gjc
 Output=/home/mmarcarino.iquir/NMR/06_SSS_Levo03_OPTB_nmr.log
 Initial command:
 /share/apps/Gaussian09/EM64T.SSE4.2-enabled/g09/l1.exe /tmp/Gau-32073.inp -scrdir=/tmp/
 Entering Link 1 = /share/apps/Gaussian09/EM64T.SSE4.2-enabled/g09/l1.exe PID=     32074.
  
 Copyright (c) 1988,1990,1992,1993,1995,1998,2003,2009,2011,
            Gaussian, Inc.  All Rights Reserved.
  
 This is part of the Gaussian(R) 09 program.  It is based on
 the Gaussian(R) 03 system (copyright 2003, Gaussian, Inc.),
 the Gaussian(R) 98 system (copyright 1998, Gaussian, Inc.),
 the Gaussian(R) 94 system (copyright 1995, Gaussian, Inc.),
 the Gaussian 92(TM) system (copyright 1992, Gaussian, Inc.),
 the Gaussian 90(TM) system (copyright 1990, Gaussian, Inc.),
 the Gaussian 88(TM) system (copyright 1988, Gaussian, Inc.),
 the Gaussian 86(TM) system (copyright 1986, Carnegie Mellon
 University), and the Gaussian 82(TM) system (copyright 1983,
 Carnegie Mellon University). Gaussian is a federally registered
 trademark of Gaussian, Inc.
  
 This software contains proprietary and confidential information,
 including trade secrets, belonging to Gaussian, Inc.
  
 This software is provided under written license and may be
 used, copied, transmitted, or stored only in accord with that
 written license.
  
 The following legend is applicable only to US Government
 contracts under FAR:
  
                    RESTRICTED RIGHTS LEGEND
  
 Use, reproduction and disclosure by the US Government is
 subject to restrictions as set forth in subparagraphs (a)
 and (c) of the Commercial Computer Software - Restricted
 Rights clause in FAR 52.227-19.
  
 Gaussian, Inc.
 340 Quinnipiac St., Bldg. 40, Wallingford CT 06492
  
  
 ---------------------------------------------------------------
 Warning -- This program may not be used in any manner that
 competes with the business of Gaussian, Inc. or will provide
 assistance to any competitor of Gaussian, Inc.  The licensee
 of this program is prohibited from giving any competitor of
 Gaussian, Inc. access to this program.  By using this program,
 the user acknowledges that Gaussian, Inc. is engaged in the
 business of creating and licensing software in the field of
 computational chemistry and represents and warrants to the
 licensee that it is not a competitor of Gaussian, Inc. and that
 it will not use this program in any manner prohibited above.
 ---------------------------------------------------------------
  

 Cite this work as:
 Gaussian 09, Revision C.01,
 M. J. Frisch, G. W. Trucks, H. B. Schlegel, G. E. Scuseria, 
 M. A. Robb, J. R. Cheeseman, G. Scalmani, V. Barone, B. Mennucci, 
 G. A. Petersson, H. Nakatsuji, M. Caricato, X. Li, H. P. Hratchian, 
 A. F. Izmaylov, J. Bloino, G. Zheng, J. L. Sonnenberg, M. Hada, 
 M. Ehara, K. Toyota, R. Fukuda, J. Hasegawa, M. Ishida, T. Nakajima, 
 Y. Honda, O. Kitao, H. Nakai, T. Vreven, J. A. Montgomery, Jr., 
 J. E. Peralta, F. Ogliaro, M. Bearpark, J. J. Heyd, E. Brothers, 
 K. N. Kudin, V. N. Staroverov, T. Keith, R. Kobayashi, J. Normand, 
 K. Raghavachari, A. Rendell, J. C. Burant, S. S. Iyengar, J. Tomasi, 
 M. Cossi, N. Rega, J. M. Millam, M. Klene, J. E. Knox, J. B. Cross, 
 V. Bakken, C. Adamo, J. Jaramillo, R. Gomperts, R. E. Stratmann, 
 O. Yazyev, A. J. Austin, R. Cammi, C. Pomelli, J. W. Ochterski, 
 R. L. Martin, K. Morokuma, V. G. Zakrzewski, G. A. Voth, 
 P. Salvador, J. J. Dannenberg, S. Dapprich, A. D. Daniels, 
 O. Farkas, J. B. Foresman, J. V. Ortiz, J. Cioslowski, 
 and D. J. Fox, Gaussian, Inc., Wallingford CT, 2010.
 
 ******************************************
 Gaussian 09:  EM64L-G09RevC.01 23-Sep-2011
                12-Apr-2019 
 ******************************************
 %nprocshared=4
 Will use up to    4 processors via shared memory.
 ------------------------------------------------
 # mpw1pw91/6-31+g** nmr scrf=(pcm,solvent=water)
 ------------------------------------------------
 1/38=1/1;
 2/12=2,17=6,18=5,40=1/2;
 3/5=1,6=6,7=111,11=2,16=1,25=1,30=1,70=2201,72=1,74=-7/1,2,8,3;
 4//1;
 5/5=2,38=5,53=1/2;
 8/6=1,10=90,11=11/1;
 10/13=100,45=16/2;
 6/7=2,8=2,9=2,10=2,28=1/1;
 99/9=1/99;
 -------
 comment
 -------
 Charge =  0 Multiplicity = 1
 Symbolic Z-Matrix:
 6                    -1.04459   1.20102   1.07054 
 6                    -1.29703   0.86082  -0.39322 
 6                     0.89646   1.21011  -0.20759 
 6                     0.25462  -1.19466  -0.39164 
 6                     1.37873  -0.17656  -0.66932 
 6                    -1.15076  -0.6385   -0.74559 
 8                    -0.20699   1.57826  -1.01037 
 8                     0.40244   1.14742   1.15376 
 8                    -2.15487  -1.42312  -0.12351 
 8                     0.30412  -1.59393   0.99296 
 8                     2.59585  -0.57234  -0.06111 
 1                    -1.47385   0.49112   1.78106 
 1                    -1.39059   2.21111   1.31118 
 1                    -2.23568   1.26182  -0.77869 
 1                     1.67361   1.97484  -0.27851 
 1                     0.42485  -2.11781  -0.95225 
 1                     1.55717  -0.10296  -1.74775 
 1                    -1.28595  -0.72005  -1.8301 
 1                    -1.73951  -1.78212   0.68363 
 1                     0.36857  -0.76368   1.50909 
 1                     2.35244  -1.11605   0.70947 
 
                          Input orientation:                          
 ---------------------------------------------------------------------
 Center     Atomic      Atomic             Coordinates (Angstroms)
 Number     Number       Type             X           Y           Z
 ---------------------------------------------------------------------
      1          6           0       -1.044587    1.201023    1.070538
      2          6           0       -1.297031    0.860818   -0.393221
      3          6           0        0.896459    1.210113   -0.207591
      4          6           0        0.254617   -1.194656   -0.391639
      5          6           0        1.378732   -0.176561   -0.669315
      6          6           0       -1.150759   -0.638495   -0.745586
      7          8           0       -0.206992    1.578261   -1.010372
      8          8           0        0.402440    1.147420    1.153755
      9          8           0       -2.154868   -1.423123   -0.123508
     10          8           0        0.304118   -1.593931    0.992957
     11          8           0        2.595848   -0.572335   -0.061113
     12          1           0       -1.473850    0.491122    1.781055
     13          1           0       -1.390592    2.211112    1.311177
     14          1           0       -2.235684    1.261825   -0.778690
     15          1           0        1.673607    1.974839   -0.278505
     16          1           0        0.424850   -2.117814   -0.952251
     17          1           0        1.557169   -0.102963   -1.747746
     18          1           0       -1.285949   -0.720051   -1.830096
     19          1           0       -1.739509   -1.782122    0.683630
     20          1           0        0.368567   -0.763679    1.509090
     21          1           0        2.352440   -1.116049    0.709469
 ---------------------------------------------------------------------
                    Distance matrix (angstroms):
                    1          2          3          4          5
     1  C    0.000000
     2  C    1.523830   0.000000
     3  C    2.324082   2.228871   0.000000
     4  C    3.092761   2.575381   2.495746   0.000000
     5  C    3.285925   2.883070   1.539039   1.541835   0.000000
     6  C    2.587162   1.547093   2.810319   1.552313   2.572455
     7  O    2.274656   1.443532   1.413363   2.878364   2.389611
     8  O    1.450409   2.315918   1.449568   2.809878   2.455536
     9  O    3.089436   2.454591   4.031327   2.435099   3.786575
    10  O    3.104318   3.242061   3.107225   1.441866   2.434519
    11  O    4.204545   4.161578   2.467083   2.444973   1.417010
    12  H    1.092273   2.212559   3.176480   3.248083   3.819337
    13  H    1.094489   2.176470   2.922201   4.147957   4.158424
    14  H    2.200467   1.091083   3.184203   3.519333   3.891647
    15  H    3.131659   3.174727   1.092609   3.474483   2.206401
    16  H    4.155189   3.485633   3.442678   1.093383   2.181377
    17  H    4.051202   3.303039   2.129034   2.174273   1.095568
    18  H    3.487472   2.136324   3.334810   2.160498   2.956910
    19  H    3.087356   2.887997   4.086083   2.340482   3.759217
    20  H    2.459550   3.005328   2.668617   1.952305   2.471961
    21  H    4.127831   4.294481   2.893425   2.370544   1.931784
                    6          7          8          9         10
     6  C    0.000000
     7  O    2.423802   0.000000
     8  O    3.034702   2.289209   0.000000
     9  O    1.418047   3.686333   3.844336   0.000000
    10  O    2.460093   3.786471   2.747823   2.705971   0.000000
    11  O    3.809192   3.658151   3.040477   4.826700   2.721534
    12  H    2.786456   3.252517   2.084394   2.784866   2.851265
    13  H    3.522507   2.681604   2.090738   3.981219   4.177518
    14  H    2.188464   2.066253   3.272175   2.764912   4.212442
    15  H    3.876174   2.056588   2.086110   5.121268   4.028428
    16  H    2.171092   3.750143   3.885552   2.797205   2.018134
    17  H    2.936664   2.546075   3.363862   4.261477   3.362228
    18  H    1.095942   2.668021   3.904033   2.040042   3.355832
    19  H    1.922802   4.063302   3.659396   0.976153   2.075454
    20  H    2.721688   3.487641   1.944148   3.077006   0.979727
    21  H    3.823303   4.094857   3.020461   4.593906   2.122348
                   11         12         13         14         15
    11  O    0.000000
    12  H    4.592055   0.000000
    13  H    5.051976   1.784960   0.000000
    14  H    5.217544   2.779689   2.445991   0.000000
    15  H    2.717698   4.043475   3.460091   4.005138   0.000000
    16  H    2.809958   4.228779   5.211385   4.304710   4.331644
    17  H    2.035656   4.689611   4.837484   4.145775   2.547447
    18  H    4.268427   3.813484   4.297704   2.436244   4.292882
    19  H    4.562187   2.538219   4.057274   3.413236   5.166219
    20  H    2.731836   2.245660   3.461675   4.014813   3.521094
    21  H    0.973996   4.286233   5.044040   5.377712   3.315192
                   16         17         18         19         20
    16  H    0.000000
    17  H    2.444296   0.000000
    18  H    2.377222   2.910481   0.000000
    19  H    2.733724   4.427104   2.766321   0.000000
    20  H    2.809813   3.529349   3.726861   2.482457   0.000000
    21  H    2.735041   2.774294   4.454669   4.145886   2.167789
                   21
    21  H    0.000000
 Stoichiometry    C6H10O5
 Framework group  C1[X(C6H10O5)]
 Deg. of freedom    57
 Full point group                 C1      NOp   1
 Largest Abelian subgroup         C1      NOp   1
 Largest concise Abelian subgroup C1      NOp   1
                         Standard orientation:                         
 ---------------------------------------------------------------------
 Center     Atomic      Atomic             Coordinates (Angstroms)
 Number     Number       Type             X           Y           Z
 ---------------------------------------------------------------------
      1          6           0       -1.044587    1.201023    1.070538
      2          6           0       -1.297031    0.860818   -0.393221
      3          6           0        0.896459    1.210113   -0.207591
      4          6           0        0.254617   -1.194656   -0.391639
      5          6           0        1.378732   -0.176561   -0.669315
      6          6           0       -1.150759   -0.638495   -0.745586
      7          8           0       -0.206992    1.578261   -1.010372
      8          8           0        0.402440    1.147420    1.153755
      9          8           0       -2.154868   -1.423123   -0.123508
     10          8           0        0.304118   -1.593931    0.992957
     11          8           0        2.595848   -0.572335   -0.061113
     12          1           0       -1.473850    0.491122    1.781055
     13          1           0       -1.390592    2.211112    1.311177
     14          1           0       -2.235684    1.261825   -0.778690
     15          1           0        1.673607    1.974839   -0.278505
     16          1           0        0.424850   -2.117814   -0.952251
     17          1           0        1.557169   -0.102963   -1.747746
     18          1           0       -1.285949   -0.720051   -1.830096
     19          1           0       -1.739509   -1.782122    0.683630
     20          1           0        0.368567   -0.763679    1.509090
     21          1           0        2.352440   -1.116049    0.709469
 ---------------------------------------------------------------------
 Rotational constants (GHZ):      1.5506582      1.2816863      0.9709814
 Standard basis: 6-31+G(d,p) (6D, 7F)
 There are   259 symmetry adapted basis functions of A   symmetry.
 Integral buffers will be    131072 words long.
 Raffenetti 2 integral format.
 Two-electron integral symmetry is turned on.
   259 basis functions,   422 primitive gaussians,   259 cartesian basis functions
    43 alpha electrons       43 beta electrons
       nuclear repulsion energy       736.5487922364 Hartrees.
 NAtoms=   21 NActive=   21 NUniq=   21 SFac= 1.00D+00 NAtFMM=   60 NAOKFM=F Big=F
 ------------------------------------------------------------------------------
 Polarizable Continuum Model (PCM)
 =================================
 Model                : PCM.
 Atomic radii         : UFF (Universal Force Field).
 Polarization charges : Total charges.
 Charge compensation  : None.
 Solution method      : Matrix inversion.
 Cavity type          : Scaled VdW (van der Waals Surface) (Alpha=1.100).
 Cavity algorithm     : GePol (No added spheres)
                        Default sphere list used, NSphG=   21.
                        Lebedev-Laikov grids with approx.  5.0 points / Ang**2.
                        Smoothing algorithm: Karplus/York (Gamma=1.0000).
                        Polarization charges: spherical gaussians, with
                                              point-specific exponents (IZeta= 3).
                        Self-potential: point-specific (ISelfS= 7).
                        Self-field    : sphere-specific E.n sum rule (ISelfD= 2).
 Solvent              : Water, Eps=  78.355300 Eps(inf)=   1.777849
 ------------------------------------------------------------------------------
 One-electron integrals computed using PRISM.
 NBasis=   259 RedAO= T  NBF=   259
 NBsUse=   259 1.00D-06 NBFU=   259
 Harris functional with IExCor=  908 diagonalized for initial guess.
 ExpMin= 4.38D-02 ExpMax= 5.48D+03 ExpMxC= 8.25D+02 IAcc=2 IRadAn=         4 AccDes= 0.00D+00
 HarFok:  IExCor=  908 AccDes= 0.00D+00 IRadAn=         4 IDoV= 1
 ScaDFX=  1.000000  1.000000  1.000000  1.000000
 FoFCou: FMM=F IPFlag=           0 FMFlag=      100000 FMFlg1=           0
         NFxFlg=           0 DoJE=T BraDBF=F KetDBF=T FulRan=T
         Omega=  0.000000  0.000000  1.000000  0.000000  0.000000 ICntrl=     500 IOpCl=  0
         NMat0=    1 NMatS0=    1 NMatT0=    0 NMatD0=    1 NMtDS0=    0 NMtDT0=    0
         I1Cent=           4 NGrid=           0.
 Petite list used in FoFCou.
 Initial guess orbital symmetries:
       Occupied  (A) (A) (A) (A) (A) (A) (A) (A) (A) (A) (A) (A)
                 (A) (A) (A) (A) (A) (A) (A) (A) (A) (A) (A) (A)
                 (A) (A) (A) (A) (A) (A) (A) (A) (A) (A) (A) (A)
                 (A) (A) (A) (A) (A) (A) (A)
       Virtual   (A) (A) (A) (A) (A) (A) (A) (A) (A) (A) (A) (A)
                 (A) (A) (A) (A) (A) (A) (A) (A) (A) (A) (A) (A)
                 (A) (A) (A) (A) (A) (A) (A) (A) (A) (A) (A) (A)
                 (A) (A) (A) (A) (A) (A) (A) (A) (A) (A) (A) (A)
                 (A) (A) (A) (A) (A) (A) (A) (A) (A) (A) (A) (A)
                 (A) (A) (A) (A) (A) (A) (A) (A) (A) (A) (A) (A)
                 (A) (A) (A) (A) (A) (A) (A) (A) (A) (A) (A) (A)
                 (A) (A) (A) (A) (A) (A) (A) (A) (A) (A) (A) (A)
                 (A) (A) (A) (A) (A) (A) (A) (A) (A) (A) (A) (A)
                 (A) (A) (A) (A) (A) (A) (A) (A) (A) (A) (A) (A)
                 (A) (A) (A) (A) (A) (A) (A) (A) (A) (A) (A) (A)
                 (A) (A) (A) (A) (A) (A) (A) (A) (A) (A) (A) (A)
                 (A) (A) (A) (A) (A) (A) (A) (A) (A) (A) (A) (A)
                 (A) (A) (A) (A) (A) (A) (A) (A) (A) (A) (A) (A)
                 (A) (A) (A) (A) (A) (A) (A) (A) (A) (A) (A) (A)
                 (A) (A) (A) (A) (A) (A) (A) (A) (A) (A) (A) (A)
                 (A) (A) (A) (A) (A) (A) (A) (A) (A) (A) (A) (A)
                 (A) (A) (A) (A) (A) (A) (A) (A) (A) (A) (A) (A)
 The electronic state of the initial guess is 1-A.
 Requested convergence on RMS density matrix=1.00D-08 within 128 cycles.
 Requested convergence on MAX density matrix=1.00D-06.
 Requested convergence on             energy=1.00D-06.
 No special actions if energy rises.
 Error on total polarization charges =  0.01147
 SCF Done:  E(RmPW1PW91) =  -610.650870897     A.U. after   12 cycles
             Convg  =    0.8258D-08             -V/T =  2.0090
 Range of M.O.s used for correlation:     1   259
 NBasis=   259 NAE=    43 NBE=    43 NFC=     0 NFV=     0
 NROrb=    259 NOA=    43 NOB=    43 NVA=   216 NVB=   216

 **** Warning!!: The largest alpha MO coefficient is  0.67173858D+02

 NEqPCM:  Using equilibrium solvation (IEInf=0, Eps=  78.3553, EpsInf=   1.7778)
          Differentiating once with respect to magnetic field using GIAOs.
          Electric field/nuclear overlap derivatives assumed to be zero.
 FoFCou: FMM=F IPFlag=           0 FMFlag=    10101102 FMFlg1=           0
         NFxFlg=    40000000 DoJE=F BraDBF=F KetDBF=T FulRan=T
         Omega=  0.000000  0.000000  1.000000  0.000000  0.000000 ICntrl=    6100 IOpCl=  0
         NMat0=    1 NMatS0=    1 NMatT0=    0 NMatD0=    1 NMtDS0=    0 NMtDT0=    0
         I1Cent=           7 NGrid=        1509.
 Symmetry not used in FoFCou.
          There are     3 degrees of freedom in the 1st order CPHF.  IDoFFX=0.
      3 vectors produced by pass  0 Test12= 3.10D-13 3.33D-08 XBig12= 2.13D+01 7.94D-01.
 AX will form     3 AO Fock derivatives at one time.
      3 vectors produced by pass  1 Test12= 3.10D-13 3.33D-08 XBig12= 4.62D-02 2.67D-02.
      3 vectors produced by pass  2 Test12= 3.10D-13 3.33D-08 XBig12= 8.45D-05 1.55D-03.
      3 vectors produced by pass  3 Test12= 3.10D-13 3.33D-08 XBig12= 3.93D-07 1.11D-04.
      3 vectors produced by pass  4 Test12= 3.10D-13 3.33D-08 XBig12= 1.24D-09 6.28D-06.
      3 vectors produced by pass  5 Test12= 3.10D-13 3.33D-08 XBig12= 4.54D-12 3.55D-07.
 Inverted reduced A of dimension    18 with in-core refinement.
 Calculating GIAO nuclear magnetic shielding tensors.
 SCF GIAO Magnetic shielding tensor (ppm):
      1  C    Isotropic =   130.3543   Anisotropy =    65.2579
   XX=   172.6529   YX=    -1.2126   ZX=    11.7839
   XY=    -5.3875   YY=   101.3751   ZY=    11.1229
   XZ=     4.2280   YZ=     1.9969   ZZ=   117.0349
   Eigenvalues:    98.5183   118.6850   173.8596
      2  C    Isotropic =   118.3975   Anisotropy =    57.8409
   XX=   127.0611   YX=    21.3955   ZX=   -24.4811
   XY=    33.5751   YY=   113.3354   ZY=    -4.5541
   XZ=   -12.8534   YZ=    -8.4489   ZZ=   114.7961
   Eigenvalues:    89.7462   108.4882   156.9582
      3  C    Isotropic =    90.8654   Anisotropy =    29.0035
   XX=    91.1935   YX=    -7.6646   ZX=     4.0293
   XY=   -15.0621   YY=    71.4814   ZY=    -1.3357
   XZ=    -7.8413   YZ=    -4.3070   ZZ=   109.9214
   Eigenvalues:    66.0383    96.3569   110.2011
      4  C    Isotropic =   121.7708   Anisotropy =    37.0423
   XX=   118.6547   YX=    -0.3273   ZX=     0.4110
   XY=     1.2827   YY=   103.4356   ZY=   -16.2401
   XZ=    -0.3816   YZ=    -7.3856   ZZ=   143.2223
   Eigenvalues:   100.1809   118.6659   146.4657
      5  C    Isotropic =   125.0723   Anisotropy =    43.2051
   XX=   134.1208   YX=   -14.1398   ZX=    15.6906
   XY=   -19.0801   YY=   121.5014   ZY=     0.6793
   XZ=    22.7330   YZ=    -2.2621   ZZ=   119.5947
   Eigenvalues:   101.4132   119.9281   153.8757
      6  C    Isotropic =   128.1838   Anisotropy =    47.5302
   XX=   131.3370   YX=    15.3117   ZX=   -15.4871
   XY=    20.6986   YY=   134.9712   ZY=    -5.5946
   XZ=   -20.9298   YZ=   -11.7367   ZZ=   118.2433
   Eigenvalues:   104.9108   119.7701   159.8707
      7  O    Isotropic =   233.6980   Anisotropy =    75.1889
   XX=   243.3103   YX=   -10.5331   ZX=    -4.5412
   XY=   -10.1224   YY=   179.1504   ZY=   -17.5324
   XZ=   -17.9294   YZ=   -17.2976   ZZ=   278.6332
   Eigenvalues:   174.0630   243.2070   283.8239
      8  O    Isotropic =   265.4971   Anisotropy =    95.4533
   XX=   293.4534   YX=    -1.8162   ZX=     0.9298
   XY=    -9.6118   YY=   175.9743   ZY=   -14.1968
   XZ=    11.1809   YZ=    -9.0465   ZZ=   327.0636
   Eigenvalues:   174.8539   292.5047   329.1326
      9  O    Isotropic =   304.9544   Anisotropy =    26.4746
   XX=   310.5262   YX=     4.9660   ZX=     5.4705
   XY=    13.7493   YY=   315.1977   ZY=   -17.4075
   XZ=    12.8515   YZ=    -0.8621   ZZ=   289.1394
   Eigenvalues:   281.4892   310.7699   322.6042
     10  O    Isotropic =   316.7381   Anisotropy =   101.0230
   XX=   277.7857   YX=     0.9143   ZX=   -17.2215
   XY=     3.3125   YY=   343.7233   ZY=    74.1387
   XZ=     6.2973   YZ=    20.3491   ZZ=   328.7054
   Eigenvalues:   275.3980   290.7296   384.0868
     11  O    Isotropic =   306.1357   Anisotropy =    30.4521
   XX=   320.4130   YX=    -3.3027   ZX=     6.1448
   XY=   -10.0390   YY=   313.3229   ZY=   -20.8571
   XZ=    -3.8894   YZ=    -7.4993   ZZ=   284.6712
   Eigenvalues:   278.7863   313.1837   326.4371
     12  H    Isotropic =    27.3928   Anisotropy =     6.3308
   XX=    28.3298   YX=     1.2013   ZX=    -4.1748
   XY=     0.2171   YY=    26.0098   ZY=    -0.3014
   XZ=    -2.8208   YZ=     0.7834   ZZ=    27.8388
   Eigenvalues:    24.3179    26.2472    31.6134
     13  H    Isotropic =    27.7836   Anisotropy =    11.8191
   XX=    29.0696   YX=    -5.3391   ZX=    -1.9805
   XY=    -4.5017   YY=    29.3953   ZY=     4.5232
   XZ=    -1.3414   YZ=     3.3685   ZZ=    24.8858
   Eigenvalues:    22.3274    25.3604    35.6629
     14  H    Isotropic =    27.1425   Anisotropy =     7.6467
   XX=    30.5284   YX=    -1.7766   ZX=     3.3367
   XY=    -1.8898   YY=    26.3082   ZY=    -1.1784
   XZ=     1.7213   YZ=    -1.2874   ZZ=    24.5910
   Eigenvalues:    23.5348    25.6525    32.2403
     15  H    Isotropic =    26.1289   Anisotropy =     7.6177
   XX=    27.5334   YX=     2.9650   ZX=    -1.0884
   XY=     3.9737   YY=    26.9419   ZY=    -0.9446
   XZ=    -1.6053   YZ=    -1.7003   ZZ=    23.9115
   Eigenvalues:    23.4129    23.7666    31.2074
     16  H    Isotropic =    27.4801   Anisotropy =     9.0830
   XX=    24.4987   YX=    -1.3174   ZX=    -0.4883
   XY=    -1.1202   YY=    28.0227   ZY=     3.4666
   XZ=    -0.6987   YZ=     5.1218   ZZ=    29.9189
   Eigenvalues:    23.8667    25.0381    33.5354
     17  H    Isotropic =    27.9195   Anisotropy =     6.1991
   XX=    28.5245   YX=    -2.4048   ZX=    -0.8356
   XY=    -1.7697   YY=    24.0800   ZY=     0.0207
   XZ=    -2.6520   YZ=    -1.0955   ZZ=    31.1540
   Eigenvalues:    23.0852    28.6211    32.0522
     18  H    Isotropic =    27.6345   Anisotropy =     6.6889
   XX=    25.4399   YX=     2.0730   ZX=     0.4211
   XY=     1.5412   YY=    25.9709   ZY=     1.0349
   XZ=     2.6729   YZ=     0.4566   ZZ=    31.4928
   Eigenvalues:    23.8124    26.9974    32.0938
     19  H    Isotropic =    28.1648   Anisotropy =    15.6469
   XX=    28.3457   YX=     0.6258   ZX=     5.1920
   XY=     0.1639   YY=    24.0213   ZY=    -8.0426
   XZ=     4.2355   YZ=    -8.1473   ZZ=    32.1273
   Eigenvalues:    18.1798    27.7184    38.5961
     20  H    Isotropic =    28.2566   Anisotropy =    20.0304
   XX=    17.3764   YX=    -0.4965   ZX=     1.3233
   XY=     0.8012   YY=    38.2579   ZY=     6.3450
   XZ=     1.1185   YZ=     6.5394   ZZ=    29.1356
   Eigenvalues:    17.2364    25.9233    41.6102
     21  H    Isotropic =    28.4543   Anisotropy =    15.2311
   XX=    28.7408   YX=     0.8090   ZX=    -1.4161
   XY=     1.4877   YY=    25.6810   ZY=    -9.9985
   XZ=    -0.7376   YZ=    -9.4069   ZZ=    30.9410
   Eigenvalues:    18.2518    28.5027    38.6083
 End of Minotr Frequency-dependent properties file   721 does not exist.
 End of Minotr Frequency-dependent properties file   722 does not exist.

 **********************************************************************

            Population analysis using the SCF density.

 **********************************************************************

 Orbital symmetries:
       Occupied  (A) (A) (A) (A) (A) (A) (A) (A) (A) (A) (A) (A)
                 (A) (A) (A) (A) (A) (A) (A) (A) (A) (A) (A) (A)
                 (A) (A) (A) (A) (A) (A) (A) (A) (A) (A) (A) (A)
                 (A) (A) (A) (A) (A) (A) (A)
       Virtual   (A) (A) (A) (A) (A) (A) (A) (A) (A) (A) (A) (A)
                 (A) (A) (A) (A) (A) (A) (A) (A) (A) (A) (A) (A)
                 (A) (A) (A) (A) (A) (A) (A) (A) (A) (A) (A) (A)
                 (A) (A) (A) (A) (A) (A) (A) (A) (A) (A) (A) (A)
                 (A) (A) (A) (A) (A) (A) (A) (A) (A) (A) (A) (A)
                 (A) (A) (A) (A) (A) (A) (A) (A) (A) (A) (A) (A)
                 (A) (A) (A) (A) (A) (A) (A) (A) (A) (A) (A) (A)
                 (A) (A) (A) (A) (A) (A) (A) (A) (A) (A) (A) (A)
                 (A) (A) (A) (A) (A) (A) (A) (A) (A) (A) (A) (A)
                 (A) (A) (A) (A) (A) (A) (A) (A) (A) (A) (A) (A)
                 (A) (A) (A) (A) (A) (A) (A) (A) (A) (A) (A) (A)
                 (A) (A) (A) (A) (A) (A) (A) (A) (A) (A) (A) (A)
                 (A) (A) (A) (A) (A) (A) (A) (A) (A) (A) (A) (A)
                 (A) (A) (A) (A) (A) (A) (A) (A) (A) (A) (A) (A)
                 (A) (A) (A) (A) (A) (A) (A) (A) (A) (A) (A) (A)
                 (A) (A) (A) (A) (A) (A) (A) (A) (A) (A) (A) (A)
                 (A) (A) (A) (A) (A) (A) (A) (A) (A) (A) (A) (A)
                 (A) (A) (A) (A) (A) (A) (A) (A) (A) (A) (A) (A)
 The electronic state is 1-A.
 Alpha  occ. eigenvalues --  -19.28376 -19.28235 -19.27671 -19.26559 -19.26407
 Alpha  occ. eigenvalues --  -10.36328 -10.32366 -10.32032 -10.31887 -10.31777
 Alpha  occ. eigenvalues --  -10.31301  -1.14932  -1.09544  -1.07340  -1.05606
 Alpha  occ. eigenvalues --   -1.04588  -0.82535  -0.81372  -0.71150  -0.69189
 Alpha  occ. eigenvalues --   -0.64627  -0.62492  -0.59087  -0.55106  -0.54136
 Alpha  occ. eigenvalues --   -0.52489  -0.51218  -0.49870  -0.47226  -0.47208
 Alpha  occ. eigenvalues --   -0.45304  -0.43905  -0.43013  -0.41384  -0.39038
 Alpha  occ. eigenvalues --   -0.38353  -0.37019  -0.35925  -0.34861  -0.33130
 Alpha  occ. eigenvalues --   -0.31810  -0.29753  -0.27779
 Alpha virt. eigenvalues --    0.00195   0.01935   0.02290   0.02681   0.04370
 Alpha virt. eigenvalues --    0.04695   0.04857   0.04893   0.05548   0.08018
 Alpha virt. eigenvalues --    0.08925   0.09371   0.10520   0.10683   0.11629
 Alpha virt. eigenvalues --    0.12083   0.12562   0.12852   0.13569   0.14518
 Alpha virt. eigenvalues --    0.14594   0.15541   0.16294   0.17123   0.17185
 Alpha virt. eigenvalues --    0.17543   0.18439   0.19252   0.19714   0.21034
 Alpha virt. eigenvalues --    0.21556   0.21642   0.22284   0.22967   0.23770
 Alpha virt. eigenvalues --    0.24293   0.24570   0.24967   0.25743   0.26945
 Alpha virt. eigenvalues --    0.27047   0.28281   0.28486   0.29461   0.30254
 Alpha virt. eigenvalues --    0.31484   0.32550   0.32989   0.33530   0.33887
 Alpha virt. eigenvalues --    0.34668   0.34956   0.35274   0.36896   0.36956
 Alpha virt. eigenvalues --    0.37343   0.38043   0.38637   0.39222   0.39986
 Alpha virt. eigenvalues --    0.41944   0.43266   0.43383   0.46705   0.49674
 Alpha virt. eigenvalues --    0.51903   0.65316   0.66538   0.66774   0.68835
 Alpha virt. eigenvalues --    0.70701   0.71472   0.72726   0.74212   0.75473
 Alpha virt. eigenvalues --    0.79621   0.80925   0.83567   0.85217   0.86352
 Alpha virt. eigenvalues --    0.86776   0.92574   0.94776   0.97173   0.99923
 Alpha virt. eigenvalues --    1.01114   1.02724   1.04579   1.06431   1.07378
 Alpha virt. eigenvalues --    1.10057   1.11019   1.11188   1.13922   1.14152
 Alpha virt. eigenvalues --    1.18496   1.20731   1.22844   1.25368   1.27001
 Alpha virt. eigenvalues --    1.28043   1.29292   1.29948   1.31191   1.32934
 Alpha virt. eigenvalues --    1.35528   1.37156   1.38059   1.39568   1.40384
 Alpha virt. eigenvalues --    1.44030   1.45020   1.46777   1.47774   1.50654
 Alpha virt. eigenvalues --    1.52724   1.54645   1.56907   1.57890   1.60777
 Alpha virt. eigenvalues --    1.61308   1.63927   1.65598   1.67192   1.67696
 Alpha virt. eigenvalues --    1.69604   1.72723   1.73999   1.76301   1.78468
 Alpha virt. eigenvalues --    1.80096   1.80847   1.84935   1.87640   1.90027
 Alpha virt. eigenvalues --    1.92286   1.93687   1.94310   1.95704   1.97381
 Alpha virt. eigenvalues --    2.00385   2.04663   2.04896   2.06328   2.08670
 Alpha virt. eigenvalues --    2.11168   2.11997   2.13155   2.15214   2.16072
 Alpha virt. eigenvalues --    2.18292   2.20640   2.24825   2.26462   2.29696
 Alpha virt. eigenvalues --    2.31161   2.34202   2.35892   2.36878   2.44153
 Alpha virt. eigenvalues --    2.46034   2.46507   2.49356   2.51271   2.52464
 Alpha virt. eigenvalues --    2.53995   2.57520   2.58133   2.62777   2.63417
 Alpha virt. eigenvalues --    2.64837   2.65340   2.67347   2.67526   2.70252
 Alpha virt. eigenvalues --    2.71477   2.73738   2.76953   2.77103   2.81270
 Alpha virt. eigenvalues --    2.83370   2.84877   2.85807   2.90762   2.90990
 Alpha virt. eigenvalues --    2.94721   2.96280   2.98315   3.01154   3.03997
 Alpha virt. eigenvalues --    3.05889   3.07344   3.12396   3.13468   3.15433
 Alpha virt. eigenvalues --    3.34875   3.44154   3.45471   3.46548   3.47630
 Alpha virt. eigenvalues --    3.51818   3.52871   3.57219   3.59017   3.63811
 Alpha virt. eigenvalues --    4.25902   4.36867   4.41109   4.47575   4.50834
 Alpha virt. eigenvalues --    4.54582   4.64208   4.83173   4.89667   4.93513
 Alpha virt. eigenvalues --    4.96307
          Condensed to atoms (all electrons):
              1          2          3          4          5          6
     1  C    6.002366  -0.662057  -0.474618  -0.432368   0.435298   0.214507
     2  C   -0.662057   7.349704  -0.273752   0.643152  -0.140335  -1.026575
     3  C   -0.474618  -0.273752   7.220945   0.549686  -1.808372   0.254918
     4  C   -0.432368   0.643152   0.549686   6.864856  -1.105486  -0.713466
     5  C    0.435298  -0.140335  -1.808372  -1.105486   8.314587  -0.279346
     6  C    0.214507  -1.026575   0.254918  -0.713466  -0.279346   7.109175
     7  O    0.016815   0.055977   0.282250  -0.065698  -0.043340  -0.052834
     8  O    0.024690   0.004956   0.201147   0.052998  -0.168657  -0.021825
     9  O    0.068260  -0.226920  -0.017853  -0.124148   0.055184   0.348391
    10  O    0.054123  -0.057988  -0.088407   0.117313   0.054408  -0.052887
    11  O    0.021390  -0.020883  -0.170453  -0.070681   0.301148   0.036146
    12  H    0.474839  -0.134480   0.019455  -0.020900   0.006285   0.012295
    13  H    0.358774   0.000958  -0.011824   0.001867   0.001474   0.023810
    14  H    0.005695   0.288419  -0.002749  -0.006504   0.016007   0.035535
    15  H   -0.003113   0.036024   0.330805   0.025292  -0.014421  -0.001653
    16  H   -0.002132  -0.000739   0.019795   0.343405  -0.018950   0.013802
    17  H   -0.003838   0.001249  -0.070115  -0.066708   0.472274  -0.014739
    18  H    0.028170  -0.053242  -0.017441  -0.044741   0.006238   0.396326
    19  H    0.011887  -0.007064  -0.009420  -0.037754   0.021697  -0.006221
    20  H   -0.013555   0.004663   0.041717   0.002006  -0.036823  -0.003664
    21  H    0.000127  -0.005618  -0.007743  -0.073683   0.050168   0.012196
              7          8          9         10         11         12
     1  C    0.016815   0.024690   0.068260   0.054123   0.021390   0.474839
     2  C    0.055977   0.004956  -0.226920  -0.057988  -0.020883  -0.134480
     3  C    0.282250   0.201147  -0.017853  -0.088407  -0.170453   0.019455
     4  C   -0.065698   0.052998  -0.124148   0.117313  -0.070681  -0.020900
     5  C   -0.043340  -0.168657   0.055184   0.054408   0.301148   0.006285
     6  C   -0.052834  -0.021825   0.348391  -0.052887   0.036146   0.012295
     7  O    8.236516  -0.072641   0.015133   0.004050   0.008845   0.013049
     8  O   -0.072641   8.501980  -0.010780   0.015575   0.015807  -0.054281
     9  O    0.015133  -0.010780   8.221461  -0.018664  -0.001028   0.009970
    10  O    0.004050   0.015575  -0.018664   8.337400  -0.013341   0.001278
    11  O    0.008845   0.015807  -0.001028  -0.013341   8.217571   0.000042
    12  H    0.013049  -0.054281   0.009970   0.001278   0.000042   0.513476
    13  H   -0.005461  -0.037268  -0.001836  -0.000258  -0.000003  -0.031120
    14  H   -0.029407   0.006430   0.001657  -0.000416   0.000061   0.001914
    15  H   -0.041736  -0.043388  -0.000098  -0.000514   0.002231  -0.000202
    16  H   -0.001460   0.001173   0.000304  -0.052486  -0.000121  -0.000028
    17  H   -0.000086   0.012737  -0.000451   0.009541  -0.057877   0.000002
    18  H    0.006788  -0.000784  -0.050364   0.010079  -0.000195   0.000125
    19  H   -0.000084  -0.001626   0.251041   0.036353  -0.000064  -0.000622
    20  H   -0.001493   0.027868  -0.001770   0.246272  -0.008065  -0.000959
    21  H   -0.000352   0.001170  -0.000137   0.039650   0.246584   0.000020
             13         14         15         16         17         18
     1  C    0.358774   0.005695  -0.003113  -0.002132  -0.003838   0.028170
     2  C    0.000958   0.288419   0.036024  -0.000739   0.001249  -0.053242
     3  C   -0.011824  -0.002749   0.330805   0.019795  -0.070115  -0.017441
     4  C    0.001867  -0.006504   0.025292   0.343405  -0.066708  -0.044741
     5  C    0.001474   0.016007  -0.014421  -0.018950   0.472274   0.006238
     6  C    0.023810   0.035535  -0.001653   0.013802  -0.014739   0.396326
     7  O   -0.005461  -0.029407  -0.041736  -0.001460  -0.000086   0.006788
     8  O   -0.037268   0.006430  -0.043388   0.001173   0.012737  -0.000784
     9  O   -0.001836   0.001657  -0.000098   0.000304  -0.000451  -0.050364
    10  O   -0.000258  -0.000416  -0.000514  -0.052486   0.009541   0.010079
    11  O   -0.000003   0.000061   0.002231  -0.000121  -0.057877  -0.000195
    12  H   -0.031120   0.001914  -0.000202  -0.000028   0.000002   0.000125
    13  H    0.514546  -0.002224   0.000623   0.000003   0.000013  -0.000122
    14  H   -0.002224   0.492564   0.000033  -0.000107  -0.000016  -0.006895
    15  H    0.000623   0.000033   0.523516  -0.000129  -0.002745  -0.000037
    16  H    0.000003  -0.000107  -0.000129   0.509163  -0.004276  -0.004953
    17  H    0.000013  -0.000016  -0.002745  -0.004276   0.521969   0.000849
    18  H   -0.000122  -0.006895  -0.000037  -0.004953   0.000849   0.533912
    19  H    0.000016  -0.000204   0.000000  -0.000724  -0.000019   0.005424
    20  H    0.000312  -0.000040  -0.000089   0.005260  -0.000243  -0.000331
    21  H   -0.000001   0.000000  -0.000300  -0.000662   0.005609  -0.000028
             19         20         21
     1  C    0.011887  -0.013555   0.000127
     2  C   -0.007064   0.004663  -0.005618
     3  C   -0.009420   0.041717  -0.007743
     4  C   -0.037754   0.002006  -0.073683
     5  C    0.021697  -0.036823   0.050168
     6  C   -0.006221  -0.003664   0.012196
     7  O   -0.000084  -0.001493  -0.000352
     8  O   -0.001626   0.027868   0.001170
     9  O    0.251041  -0.001770  -0.000137
    10  O    0.036353   0.246272   0.039650
    11  O   -0.000064  -0.008065   0.246584
    12  H   -0.000622  -0.000959   0.000020
    13  H    0.000016   0.000312  -0.000001
    14  H   -0.000204  -0.000040   0.000000
    15  H    0.000000  -0.000089  -0.000300
    16  H   -0.000724   0.005260  -0.000662
    17  H   -0.000019  -0.000243   0.005609
    18  H    0.005424  -0.000331  -0.000028
    19  H    0.350806  -0.002614  -0.000019
    20  H   -0.002614   0.306010  -0.001522
    21  H   -0.000019  -0.001522   0.354759
 Mulliken atomic charges:
              1
     1  C   -0.125259
     2  C    0.224550
     3  C    0.032028
     4  C    0.161559
     5  C   -0.119037
     6  C   -0.283892
     7  O   -0.324832
     8  O   -0.455282
     9  O   -0.517351
    10  O   -0.641083
    11  O   -0.507115
    12  H    0.189842
    13  H    0.187720
    14  H    0.200245
    15  H    0.189902
    16  H    0.193863
    17  H    0.196867
    18  H    0.191222
    19  H    0.389210
    20  H    0.437060
    21  H    0.379780
 Sum of Mulliken atomic charges =   0.00000
 Mulliken charges with hydrogens summed into heavy atoms:
              1
     1  C    0.252303
     2  C    0.424795
     3  C    0.221931
     4  C    0.355422
     5  C    0.077830
     6  C   -0.092670
     7  O   -0.324832
     8  O   -0.455282
     9  O   -0.128141
    10  O   -0.204023
    11  O   -0.127334
 Sum of Mulliken charges with hydrogens summed into heavy atoms =   0.00000
 Electronic spatial extent (au):  <R**2>=           1368.3108
 Charge=              0.0000 electrons
 Dipole moment (field-independent basis, Debye):
    X=             -1.4768    Y=              0.8635    Z=              0.3762  Tot=              1.7516
 Quadrupole moment (field-independent basis, Debye-Ang):
   XX=            -73.7838   YY=            -67.9221   ZZ=            -61.6730
   XY=             -4.2233   XZ=             -2.5576   YZ=              1.2641
 Traceless Quadrupole moment (field-independent basis, Debye-Ang):
   XX=             -5.9908   YY=             -0.1291   ZZ=              6.1199
   XY=             -4.2233   XZ=             -2.5576   YZ=              1.2641
 Octapole moment (field-independent basis, Debye-Ang**2):
  XXX=            -10.0697  YYY=              1.7599  ZZZ=              4.9608  XYY=              4.7904
  XXY=             19.1766  XXZ=              8.6800  XZZ=             -2.7698  YZZ=             -9.0666
  YYZ=              3.2579  XYZ=             -2.5297
 Hexadecapole moment (field-independent basis, Debye-Ang**3):
 XXXX=           -903.8914 YYYY=           -611.1316 ZZZZ=           -299.7375 XXXY=            -27.8925
 XXXZ=             15.0350 YYYX=             -2.9552 YYYZ=             11.2838 ZZZX=             -3.4249
 ZZZY=             -2.0727 XXYY=           -223.3010 XXZZ=           -160.0446 YYZZ=           -161.8938
 XXYZ=            -25.3445 YYXZ=            -14.4853 ZZXY=             -3.2013
 N-N= 7.365487922364D+02 E-N=-2.902242607367D+03  KE= 6.052070190140D+02
 1\1\GINC-COMPUTE-8-21\SP\RmPW1PW91\6-31+G(d,p)\C6H10O5\MMARCARINO.IQUI
 R\12-Apr-2019\0\\# mpw1pw91/6-31+g** nmr scrf=(pcm,solvent=water)\\com
 ment\\0,1\C,0,-1.044587,1.201023,1.070538\C,0,-1.297031,0.860818,-0.39
 3221\C,0,0.896459,1.210113,-0.207591\C,0,0.254617,-1.194656,-0.391639\
 C,0,1.378732,-0.176561,-0.669315\C,0,-1.150759,-0.638495,-0.745586\O,0
 ,-0.206992,1.578261,-1.010372\O,0,0.40244,1.14742,1.153755\O,0,-2.1548
 68,-1.423123,-0.123508\O,0,0.304118,-1.593931,0.992957\O,0,2.595848,-0
 .572335,-0.061113\H,0,-1.47385,0.491122,1.781055\H,0,-1.390592,2.21111
 2,1.311177\H,0,-2.235684,1.261825,-0.77869\H,0,1.673607,1.974839,-0.27
 8505\H,0,0.42485,-2.117814,-0.952251\H,0,1.557169,-0.102963,-1.747746\
 H,0,-1.285949,-0.720051,-1.830096\H,0,-1.739509,-1.782122,0.68363\H,0,
 0.368567,-0.763679,1.50909\H,0,2.35244,-1.116049,0.709469\\Version=EM6
 4L-G09RevC.01\State=1-A\HF=-610.6508709\RMSD=8.258e-09\Dipole=-0.58101
 56,0.339746,0.1479918\Quadrupole=-4.4540081,-0.0960182,4.5500264,-3.13
 99245,-1.9014773,0.9398039\PG=C01 [X(C6H10O5)]\\@


 THE ONLY DIFFERENCE BETWEEN ECCENTRICS AND JOGGERS
 IS THAT JOGGERS WEAR SWEATBANDS WHEN THEY RUN IN THE RAIN.
 Job cpu time:  0 days  0 hours 19 minutes 53.4 seconds.
 File lengths (MBytes):  RWF=     82 Int=      0 D2E=      0 Chk=      5 Scr=      1
 Normal termination of Gaussian 09 at Fri Apr 12 12:05:07 2019.
