 Entering Gaussian System, Link 0=g09
 Input=/home/mmarcarino.iquir/NMR/06_SSS_Levo06_OPTB_nmr.gjc
 Output=/home/mmarcarino.iquir/NMR/06_SSS_Levo06_OPTB_nmr.log
 Initial command:
 /share/apps/Gaussian09/EM64T.SSE4.2-enabled/g09/l1.exe /tmp/Gau-34647.inp -scrdir=/tmp/
 Entering Link 1 = /share/apps/Gaussian09/EM64T.SSE4.2-enabled/g09/l1.exe PID=     34648.
  
 Copyright (c) 1988,1990,1992,1993,1995,1998,2003,2009,2011,
            Gaussian, Inc.  All Rights Reserved.
  
 This is part of the Gaussian(R) 09 program.  It is based on
 the Gaussian(R) 03 system (copyright 2003, Gaussian, Inc.),
 the Gaussian(R) 98 system (copyright 1998, Gaussian, Inc.),
 the Gaussian(R) 94 system (copyright 1995, Gaussian, Inc.),
 the Gaussian 92(TM) system (copyright 1992, Gaussian, Inc.),
 the Gaussian 90(TM) system (copyright 1990, Gaussian, Inc.),
 the Gaussian 88(TM) system (copyright 1988, Gaussian, Inc.),
 the Gaussian 86(TM) system (copyright 1986, Carnegie Mellon
 University), and the Gaussian 82(TM) system (copyright 1983,
 Carnegie Mellon University). Gaussian is a federally registered
 trademark of Gaussian, Inc.
  
 This software contains proprietary and confidential information,
 including trade secrets, belonging to Gaussian, Inc.
  
 This software is provided under written license and may be
 used, copied, transmitted, or stored only in accord with that
 written license.
  
 The following legend is applicable only to US Government
 contracts under FAR:
  
                    RESTRICTED RIGHTS LEGEND
  
 Use, reproduction and disclosure by the US Government is
 subject to restrictions as set forth in subparagraphs (a)
 and (c) of the Commercial Computer Software - Restricted
 Rights clause in FAR 52.227-19.
  
 Gaussian, Inc.
 340 Quinnipiac St., Bldg. 40, Wallingford CT 06492
  
  
 ---------------------------------------------------------------
 Warning -- This program may not be used in any manner that
 competes with the business of Gaussian, Inc. or will provide
 assistance to any competitor of Gaussian, Inc.  The licensee
 of this program is prohibited from giving any competitor of
 Gaussian, Inc. access to this program.  By using this program,
 the user acknowledges that Gaussian, Inc. is engaged in the
 business of creating and licensing software in the field of
 computational chemistry and represents and warrants to the
 licensee that it is not a competitor of Gaussian, Inc. and that
 it will not use this program in any manner prohibited above.
 ---------------------------------------------------------------
  

 Cite this work as:
 Gaussian 09, Revision C.01,
 M. J. Frisch, G. W. Trucks, H. B. Schlegel, G. E. Scuseria, 
 M. A. Robb, J. R. Cheeseman, G. Scalmani, V. Barone, B. Mennucci, 
 G. A. Petersson, H. Nakatsuji, M. Caricato, X. Li, H. P. Hratchian, 
 A. F. Izmaylov, J. Bloino, G. Zheng, J. L. Sonnenberg, M. Hada, 
 M. Ehara, K. Toyota, R. Fukuda, J. Hasegawa, M. Ishida, T. Nakajima, 
 Y. Honda, O. Kitao, H. Nakai, T. Vreven, J. A. Montgomery, Jr., 
 J. E. Peralta, F. Ogliaro, M. Bearpark, J. J. Heyd, E. Brothers, 
 K. N. Kudin, V. N. Staroverov, T. Keith, R. Kobayashi, J. Normand, 
 K. Raghavachari, A. Rendell, J. C. Burant, S. S. Iyengar, J. Tomasi, 
 M. Cossi, N. Rega, J. M. Millam, M. Klene, J. E. Knox, J. B. Cross, 
 V. Bakken, C. Adamo, J. Jaramillo, R. Gomperts, R. E. Stratmann, 
 O. Yazyev, A. J. Austin, R. Cammi, C. Pomelli, J. W. Ochterski, 
 R. L. Martin, K. Morokuma, V. G. Zakrzewski, G. A. Voth, 
 P. Salvador, J. J. Dannenberg, S. Dapprich, A. D. Daniels, 
 O. Farkas, J. B. Foresman, J. V. Ortiz, J. Cioslowski, 
 and D. J. Fox, Gaussian, Inc., Wallingford CT, 2010.
 
 ******************************************
 Gaussian 09:  EM64L-G09RevC.01 23-Sep-2011
                12-Apr-2019 
 ******************************************
 %nprocshared=4
 Will use up to    4 processors via shared memory.
 ------------------------------------------------
 # mpw1pw91/6-31+g** nmr scrf=(pcm,solvent=water)
 ------------------------------------------------
 1/38=1/1;
 2/12=2,17=6,18=5,40=1/2;
 3/5=1,6=6,7=111,11=2,16=1,25=1,30=1,70=2201,72=1,74=-7/1,2,8,3;
 4//1;
 5/5=2,38=5,53=1/2;
 8/6=1,10=90,11=11/1;
 10/13=100,45=16/2;
 6/7=2,8=2,9=2,10=2,28=1/1;
 99/9=1/99;
 -------
 comment
 -------
 Charge =  0 Multiplicity = 1
 Symbolic Z-Matrix:
 6                    -0.41505   1.27763   1.22807 
 6                    -1.02896   1.14044  -0.17492 
 6                     1.16415   0.97055  -0.41508 
 6                    -0.16066  -1.24328  -0.41549 
 6                     1.19077  -0.52885  -0.75327 
 6                    -1.36046  -0.29798  -0.61418 
 8                     0.0524    1.59245  -1.01699 
 8                     1.00745   1.1436    0.99232 
 8                    -2.48564  -0.8349    0.06806 
 8                    -0.14565  -1.70938   0.9283 
 8                     2.25989  -1.15801  -0.04643 
 1                    -0.75518   0.50035   1.91295 
 1                    -0.60095   2.2679    1.65524 
 1                    -1.88247   1.80314  -0.33573 
 1                     2.08105   1.47211  -0.7362 
 1                    -0.27776  -2.1029   -1.09252 
 1                     1.40399  -0.63932  -1.82075 
 1                    -1.55112  -0.24346  -1.69549 
 1                    -3.27327  -0.37959  -0.27074 
 1                     0.72143  -2.14191   1.02687 
 1                     2.28793  -0.71747   0.82344 
 
                          Input orientation:                          
 ---------------------------------------------------------------------
 Center     Atomic      Atomic             Coordinates (Angstroms)
 Number     Number       Type             X           Y           Z
 ---------------------------------------------------------------------
      1          6           0       -0.415048    1.277628    1.228072
      2          6           0       -1.028955    1.140440   -0.174915
      3          6           0        1.164151    0.970552   -0.415082
      4          6           0       -0.160661   -1.243282   -0.415493
      5          6           0        1.190768   -0.528845   -0.753265
      6          6           0       -1.360460   -0.297976   -0.614180
      7          8           0        0.052398    1.592452   -1.016989
      8          8           0        1.007453    1.143600    0.992322
      9          8           0       -2.485643   -0.834902    0.068064
     10          8           0       -0.145645   -1.709382    0.928299
     11          8           0        2.259885   -1.158014   -0.046433
     12          1           0       -0.755184    0.500354    1.912951
     13          1           0       -0.600947    2.267902    1.655239
     14          1           0       -1.882471    1.803142   -0.335732
     15          1           0        2.081046    1.472111   -0.736197
     16          1           0       -0.277763   -2.102900   -1.092517
     17          1           0        1.403990   -0.639323   -1.820747
     18          1           0       -1.551116   -0.243461   -1.695489
     19          1           0       -3.273266   -0.379585   -0.270743
     20          1           0        0.721432   -2.141912    1.026869
     21          1           0        2.287934   -0.717468    0.823436
 ---------------------------------------------------------------------
                    Distance matrix (angstroms):
                    1          2          3          4          5
     1  C    0.000000
     2  C    1.537555   0.000000
     3  C    2.299591   2.212749   0.000000
     4  C    3.020100   2.548322   2.579959   0.000000
     5  C    3.125330   2.836930   1.537292   1.565526   0.000000
     6  C    2.601965   1.540094   2.832395   1.540324   2.565426
     7  O    2.314718   1.443166   1.408917   2.906644   2.421846
     8  O    1.448120   2.347213   1.426634   3.007264   2.424407
     9  O    3.177383   2.466365   4.100499   2.409594   3.779451
    10  O    3.014079   3.181007   3.271435   1.422410   2.450984
    11  O    3.835620   4.014457   2.422257   2.450004   1.427752
    12  H    1.090370   2.200874   3.053632   2.969070   3.457555
    13  H    1.094382   2.191763   3.014120   4.100024   4.102795
    14  H    2.207935   1.092486   3.159337   3.500242   3.880373
    15  H    3.182242   3.177601   1.093331   3.535740   2.190140
    16  H    4.102676   3.453337   3.461812   1.100462   2.179294
    17  H    4.034712   3.434464   2.150608   2.188067   1.094160
    18  H    3.485910   2.121315   3.238201   2.138083   2.913273
    19  H    3.627976   2.712304   4.640514   3.233456   4.492517
    20  H    3.609061   3.909217   3.458707   1.914689   2.447680
    21  H    3.383822   3.930684   2.376179   2.794109   1.930113
                    6          7          8          9         10
     6  C    0.000000
     7  O    2.394189   0.000000
     8  O    3.204060   2.269566   0.000000
     9  O    1.421191   3.675737   4.119520   0.000000
    10  O    2.418074   3.837379   3.077863   2.642028   0.000000
    11  O    3.764160   3.657874   2.818692   4.757893   2.653429
    12  H    2.718470   3.229461   2.090027   2.860246   2.494797
    13  H    3.508682   2.832648   2.071344   3.962145   4.068726
    14  H    2.182825   2.062091   3.248135   2.736082   4.117301
    15  H    3.871958   2.051521   2.061140   5.179169   4.224997
    16  H    2.158423   3.710840   4.066706   2.798125   2.063010
    17  H    3.035540   2.730137   3.354014   4.328407   3.332214
    18  H    1.099341   2.530256   3.961634   2.081649   3.317911
    19  H    1.945106   3.937747   4.715928   0.970801   3.603897
    20  H    3.229151   4.309343   3.298119   3.593454   0.973972
    21  H    3.943792   3.704121   2.265332   4.834399   2.630056
                   11         12         13         14         15
    11  O    0.000000
    12  H    3.959799   0.000000
    13  H    4.776709   1.792883   0.000000
    14  H    5.100123   2.832774   2.412938   0.000000
    15  H    2.724943   4.000812   3.680399   3.997427   0.000000
    16  H    2.902888   4.004710   5.172864   4.290102   4.297865
    17  H    2.037103   4.461098   4.955220   4.355655   2.468361
    18  H    4.252002   3.769298   4.293849   2.479379   4.129895
    19  H    5.592140   3.447252   4.226095   2.588983   5.684548
    20  H    2.118223   3.153903   4.646503   4.919395   4.244775
    21  H    0.975469   3.454085   4.236740   5.008934   2.696204
                   16         17         18         19         20
    16  H    0.000000
    17  H    2.345351   0.000000
    18  H    2.332920   2.984133   0.000000
    19  H    3.552206   4.934238   2.239248   0.000000
    20  H    2.343440   3.291288   4.022415   4.554910   0.000000
    21  H    3.488997   2.789116   4.616056   5.677881   2.127053
                   21
    21  H    0.000000
 Stoichiometry    C6H10O5
 Framework group  C1[X(C6H10O5)]
 Deg. of freedom    57
 Full point group                 C1      NOp   1
 Largest Abelian subgroup         C1      NOp   1
 Largest concise Abelian subgroup C1      NOp   1
                         Standard orientation:                         
 ---------------------------------------------------------------------
 Center     Atomic      Atomic             Coordinates (Angstroms)
 Number     Number       Type             X           Y           Z
 ---------------------------------------------------------------------
      1          6           0       -0.415048    1.277628    1.228072
      2          6           0       -1.028955    1.140440   -0.174915
      3          6           0        1.164151    0.970552   -0.415082
      4          6           0       -0.160661   -1.243282   -0.415493
      5          6           0        1.190768   -0.528845   -0.753265
      6          6           0       -1.360460   -0.297976   -0.614180
      7          8           0        0.052398    1.592452   -1.016989
      8          8           0        1.007453    1.143600    0.992322
      9          8           0       -2.485643   -0.834902    0.068064
     10          8           0       -0.145645   -1.709382    0.928299
     11          8           0        2.259885   -1.158014   -0.046433
     12          1           0       -0.755184    0.500354    1.912951
     13          1           0       -0.600947    2.267902    1.655239
     14          1           0       -1.882471    1.803142   -0.335732
     15          1           0        2.081046    1.472111   -0.736197
     16          1           0       -0.277763   -2.102900   -1.092517
     17          1           0        1.403990   -0.639323   -1.820747
     18          1           0       -1.551116   -0.243461   -1.695489
     19          1           0       -3.273266   -0.379585   -0.270743
     20          1           0        0.721432   -2.141912    1.026869
     21          1           0        2.287934   -0.717468    0.823436
 ---------------------------------------------------------------------
 Rotational constants (GHZ):      1.5423997      1.2819150      0.9550462
 Standard basis: 6-31+G(d,p) (6D, 7F)
 There are   259 symmetry adapted basis functions of A   symmetry.
 Integral buffers will be    131072 words long.
 Raffenetti 2 integral format.
 Two-electron integral symmetry is turned on.
   259 basis functions,   422 primitive gaussians,   259 cartesian basis functions
    43 alpha electrons       43 beta electrons
       nuclear repulsion energy       733.2831358744 Hartrees.
 NAtoms=   21 NActive=   21 NUniq=   21 SFac= 1.00D+00 NAtFMM=   60 NAOKFM=F Big=F
 ------------------------------------------------------------------------------
 Polarizable Continuum Model (PCM)
 =================================
 Model                : PCM.
 Atomic radii         : UFF (Universal Force Field).
 Polarization charges : Total charges.
 Charge compensation  : None.
 Solution method      : Matrix inversion.
 Cavity type          : Scaled VdW (van der Waals Surface) (Alpha=1.100).
 Cavity algorithm     : GePol (No added spheres)
                        Default sphere list used, NSphG=   21.
                        Lebedev-Laikov grids with approx.  5.0 points / Ang**2.
                        Smoothing algorithm: Karplus/York (Gamma=1.0000).
                        Polarization charges: spherical gaussians, with
                                              point-specific exponents (IZeta= 3).
                        Self-potential: point-specific (ISelfS= 7).
                        Self-field    : sphere-specific E.n sum rule (ISelfD= 2).
 Solvent              : Water, Eps=  78.355300 Eps(inf)=   1.777849
 ------------------------------------------------------------------------------
 One-electron integrals computed using PRISM.
 NBasis=   259 RedAO= T  NBF=   259
 NBsUse=   259 1.00D-06 NBFU=   259
 Harris functional with IExCor=  908 diagonalized for initial guess.
 ExpMin= 4.38D-02 ExpMax= 5.48D+03 ExpMxC= 8.25D+02 IAcc=2 IRadAn=         4 AccDes= 0.00D+00
 HarFok:  IExCor=  908 AccDes= 0.00D+00 IRadAn=         4 IDoV= 1
 ScaDFX=  1.000000  1.000000  1.000000  1.000000
 FoFCou: FMM=F IPFlag=           0 FMFlag=      100000 FMFlg1=           0
         NFxFlg=           0 DoJE=T BraDBF=F KetDBF=T FulRan=T
         Omega=  0.000000  0.000000  1.000000  0.000000  0.000000 ICntrl=     500 IOpCl=  0
         NMat0=    1 NMatS0=    1 NMatT0=    0 NMatD0=    1 NMtDS0=    0 NMtDT0=    0
         I1Cent=           4 NGrid=           0.
 Petite list used in FoFCou.
 Initial guess orbital symmetries:
       Occupied  (A) (A) (A) (A) (A) (A) (A) (A) (A) (A) (A) (A)
                 (A) (A) (A) (A) (A) (A) (A) (A) (A) (A) (A) (A)
                 (A) (A) (A) (A) (A) (A) (A) (A) (A) (A) (A) (A)
                 (A) (A) (A) (A) (A) (A) (A)
       Virtual   (A) (A) (A) (A) (A) (A) (A) (A) (A) (A) (A) (A)
                 (A) (A) (A) (A) (A) (A) (A) (A) (A) (A) (A) (A)
                 (A) (A) (A) (A) (A) (A) (A) (A) (A) (A) (A) (A)
                 (A) (A) (A) (A) (A) (A) (A) (A) (A) (A) (A) (A)
                 (A) (A) (A) (A) (A) (A) (A) (A) (A) (A) (A) (A)
                 (A) (A) (A) (A) (A) (A) (A) (A) (A) (A) (A) (A)
                 (A) (A) (A) (A) (A) (A) (A) (A) (A) (A) (A) (A)
                 (A) (A) (A) (A) (A) (A) (A) (A) (A) (A) (A) (A)
                 (A) (A) (A) (A) (A) (A) (A) (A) (A) (A) (A) (A)
                 (A) (A) (A) (A) (A) (A) (A) (A) (A) (A) (A) (A)
                 (A) (A) (A) (A) (A) (A) (A) (A) (A) (A) (A) (A)
                 (A) (A) (A) (A) (A) (A) (A) (A) (A) (A) (A) (A)
                 (A) (A) (A) (A) (A) (A) (A) (A) (A) (A) (A) (A)
                 (A) (A) (A) (A) (A) (A) (A) (A) (A) (A) (A) (A)
                 (A) (A) (A) (A) (A) (A) (A) (A) (A) (A) (A) (A)
                 (A) (A) (A) (A) (A) (A) (A) (A) (A) (A) (A) (A)
                 (A) (A) (A) (A) (A) (A) (A) (A) (A) (A) (A) (A)
                 (A) (A) (A) (A) (A) (A) (A) (A) (A) (A) (A) (A)
 The electronic state of the initial guess is 1-A.
 Requested convergence on RMS density matrix=1.00D-08 within 128 cycles.
 Requested convergence on MAX density matrix=1.00D-06.
 Requested convergence on             energy=1.00D-06.
 No special actions if energy rises.
 Error on total polarization charges =  0.01147
 SCF Done:  E(RmPW1PW91) =  -610.645236750     A.U. after   12 cycles
             Convg  =    0.7685D-08             -V/T =  2.0090
 Range of M.O.s used for correlation:     1   259
 NBasis=   259 NAE=    43 NBE=    43 NFC=     0 NFV=     0
 NROrb=    259 NOA=    43 NOB=    43 NVA=   216 NVB=   216

 **** Warning!!: The largest alpha MO coefficient is  0.68148108D+02

 NEqPCM:  Using equilibrium solvation (IEInf=0, Eps=  78.3553, EpsInf=   1.7778)
          Differentiating once with respect to magnetic field using GIAOs.
          Electric field/nuclear overlap derivatives assumed to be zero.
 FoFCou: FMM=F IPFlag=           0 FMFlag=    10101102 FMFlg1=           0
         NFxFlg=    40000000 DoJE=F BraDBF=F KetDBF=T FulRan=T
         Omega=  0.000000  0.000000  1.000000  0.000000  0.000000 ICntrl=    6100 IOpCl=  0
         NMat0=    1 NMatS0=    1 NMatT0=    0 NMatD0=    1 NMtDS0=    0 NMtDT0=    0
         I1Cent=           7 NGrid=        1523.
 Symmetry not used in FoFCou.
          There are     3 degrees of freedom in the 1st order CPHF.  IDoFFX=0.
      3 vectors produced by pass  0 Test12= 3.10D-13 3.33D-08 XBig12= 2.06D+01 6.35D-01.
 AX will form     3 AO Fock derivatives at one time.
      3 vectors produced by pass  1 Test12= 3.10D-13 3.33D-08 XBig12= 4.89D-02 2.27D-02.
      3 vectors produced by pass  2 Test12= 3.10D-13 3.33D-08 XBig12= 1.20D-04 1.55D-03.
      3 vectors produced by pass  3 Test12= 3.10D-13 3.33D-08 XBig12= 6.17D-07 1.81D-04.
      3 vectors produced by pass  4 Test12= 3.10D-13 3.33D-08 XBig12= 1.87D-09 7.65D-06.
      3 vectors produced by pass  5 Test12= 3.10D-13 3.33D-08 XBig12= 5.33D-12 3.42D-07.
 Inverted reduced A of dimension    18 with in-core refinement.
 Calculating GIAO nuclear magnetic shielding tensors.
 SCF GIAO Magnetic shielding tensor (ppm):
      1  C    Isotropic =   130.1637   Anisotropy =    67.4018
   XX=   173.0607   YX=    -9.0377   ZX=    -3.3898
   XY=   -11.5869   YY=   102.8378   ZY=     6.3437
   XZ=    -7.2546   YZ=     0.9496   ZZ=   114.5926
   Eigenvalues:   100.7474   114.6454   175.0982
      2  C    Isotropic =   118.5279   Anisotropy =    57.6904
   XX=   134.4503   YX=    16.0482   ZX=   -24.7383
   XY=    26.6908   YY=   100.1870   ZY=    -4.6833
   XZ=   -15.2400   YZ=    -9.1465   ZZ=   120.9462
   Eigenvalues:    89.6787   108.9168   156.9881
      3  C    Isotropic =    94.3855   Anisotropy =    27.9427
   XX=    91.4721   YX=   -12.7118   ZX=    12.6979
   XY=   -26.0319   YY=    80.4633   ZY=     2.4041
   XZ=    -2.5330   YZ=     0.7427   ZZ=   111.2212
   Eigenvalues:    65.4196   104.7230   113.0140
      4  C    Isotropic =   125.6054   Anisotropy =    34.8096
   XX=   116.5986   YX=    -1.7006   ZX=     1.2217
   XY=     0.6998   YY=   116.1543   ZY=   -17.5107
   XZ=     1.8604   YZ=    -7.1501   ZZ=   144.0634
   Eigenvalues:   111.4860   116.5185   148.8118
      5  C    Isotropic =   124.9361   Anisotropy =    39.0106
   XX=   133.1976   YX=   -10.9317   ZX=     9.6107
   XY=   -12.8002   YY=   125.5880   ZY=    -8.4477
   XZ=    16.1689   YZ=   -16.5152   ZZ=   116.0228
   Eigenvalues:   106.4991   117.3661   150.9432
      6  C    Isotropic =   125.6342   Anisotropy =    46.1909
   XX=   133.2130   YX=    13.5704   ZX=   -16.0611
   XY=    21.6572   YY=   125.1442   ZY=    -1.9563
   XZ=   -23.6166   YZ=    -6.6719   ZZ=   118.5455
   Eigenvalues:   102.1625   118.3120   156.4282
      7  O    Isotropic =   233.2624   Anisotropy =    68.3014
   XX=   233.9695   YX=   -27.0354   ZX=     9.4192
   XY=   -28.7006   YY=   187.0795   ZY=    -3.9937
   XZ=   -11.1736   YZ=    -0.5998   ZZ=   278.7383
   Eigenvalues:   174.0487   246.9419   278.7967
      8  O    Isotropic =   269.9819   Anisotropy =    88.3003
   XX=   300.6197   YX=   -26.5049   ZX=    -9.6670
   XY=   -25.3196   YY=   183.0669   ZY=     7.3882
   XZ=    26.6606   YZ=     4.2439   ZZ=   326.2591
   Eigenvalues:   177.2358   303.8610   328.8488
      9  O    Isotropic =   302.1879   Anisotropy =    57.1847
   XX=   336.0778   YX=    -6.3277   ZX=    -0.7656
   XY=   -19.7255   YY=   296.5993   ZY=     1.4716
   XZ=    10.7545   YZ=    -0.3621   ZZ=   273.8866
   Eigenvalues:   273.3653   292.8874   340.3110
     10  O    Isotropic =   313.5311   Anisotropy =    41.6867
   XX=   332.6012   YX=   -17.2269   ZX=    10.3697
   XY=   -20.5851   YY=   298.8533   ZY=    41.9432
   XZ=     9.1322   YZ=   -10.9016   ZZ=   309.1388
   Eigenvalues:   279.3045   319.9666   341.3222
     11  O    Isotropic =   307.2560   Anisotropy =    45.1156
   XX=   307.7242   YX=   -14.4982   ZX=    15.8684
   XY=   -16.9010   YY=   311.6056   ZY=    24.3558
   XZ=    -3.5886   YZ=    30.5337   ZZ=   302.4380
   Eigenvalues:   272.7214   311.7135   337.3330
     12  H    Isotropic =    26.9149   Anisotropy =     4.8032
   XX=    26.0313   YX=     1.6567   ZX=    -3.4665
   XY=     0.3964   YY=    26.5146   ZY=    -0.5395
   XZ=    -1.9609   YZ=     0.6589   ZZ=    28.1989
   Eigenvalues:    23.8904    26.7374    30.1171
     13  H    Isotropic =    27.7386   Anisotropy =    11.3180
   XX=    27.5572   YX=    -4.0021   ZX=    -2.1593
   XY=    -2.7493   YY=    29.3939   ZY=     5.9413
   XZ=    -1.5416   YZ=     4.7489   ZZ=    26.2648
   Eigenvalues:    22.1875    25.7444    35.2840
     14  H    Isotropic =    27.3134   Anisotropy =     7.4728
   XX=    30.1854   YX=    -2.8941   ZX=     1.3659
   XY=    -3.0208   YY=    27.7466   ZY=    -0.8986
   XZ=    -0.0822   YZ=    -0.9140   ZZ=    24.0082
   Eigenvalues:    23.7997    25.8452    32.2952
     15  H    Isotropic =    26.2474   Anisotropy =     8.2316
   XX=    28.6360   YX=     2.4791   ZX=    -2.6301
   XY=     2.4843   YY=    25.1394   ZY=    -1.4613
   XZ=    -3.4041   YZ=    -2.1104   ZZ=    24.9668
   Eigenvalues:    23.1150    23.8921    31.7352
     16  H    Isotropic =    27.2685   Anisotropy =     9.2563
   XX=    23.5109   YX=     0.5533   ZX=     0.6008
   XY=     0.6947   YY=    27.7306   ZY=     3.0284
   XZ=     1.3427   YZ=     4.7901   ZZ=    30.5640
   Eigenvalues:    23.3755    24.9906    33.4394
     17  H    Isotropic =    27.9644   Anisotropy =     6.6490
   XX=    27.4257   YX=    -1.9164   ZX=    -1.2642
   XY=    -1.2253   YY=    24.9503   ZY=     0.5939
   XZ=    -2.4737   YZ=     0.4449   ZZ=    31.5173
   Eigenvalues:    24.1693    27.3269    32.3971
     18  H    Isotropic =    27.5240   Anisotropy =     5.4159
   XX=    27.6131   YX=     1.8079   ZX=     0.6105
   XY=     1.6019   YY=    24.6063   ZY=    -0.2294
   XZ=     2.6987   YZ=    -1.0500   ZZ=    30.3526
   Eigenvalues:    23.5886    27.8488    31.1346
     19  H    Isotropic =    29.8078   Anisotropy =    20.2421
   XX=    41.2445   YX=    -4.5126   ZX=     4.0682
   XY=    -4.0458   YY=    25.1976   ZY=    -4.0089
   XZ=     3.2781   YZ=    -3.2314   ZZ=    22.9812
   Eigenvalues:    20.2935    25.8273    43.3025
     20  H    Isotropic =    29.1883   Anisotropy =    17.6096
   XX=    36.5906   YX=    -6.5437   ZX=     0.0572
   XY=    -6.6876   YY=    27.7392   ZY=    -7.2914
   XZ=     1.5514   YZ=    -5.0005   ZZ=    23.2351
   Eigenvalues:    18.3196    28.3172    40.9280
     21  H    Isotropic =    29.2788   Anisotropy =    15.0119
   XX=    25.6539   YX=    -2.0108   ZX=     3.3355
   XY=    -1.6189   YY=    26.5135   ZY=     6.5215
   XZ=     4.3536   YZ=     5.7714   ZZ=    35.6690
   Eigenvalues:    20.8771    27.6726    39.2868
 End of Minotr Frequency-dependent properties file   721 does not exist.
 End of Minotr Frequency-dependent properties file   722 does not exist.

 **********************************************************************

            Population analysis using the SCF density.

 **********************************************************************

 Orbital symmetries:
       Occupied  (A) (A) (A) (A) (A) (A) (A) (A) (A) (A) (A) (A)
                 (A) (A) (A) (A) (A) (A) (A) (A) (A) (A) (A) (A)
                 (A) (A) (A) (A) (A) (A) (A) (A) (A) (A) (A) (A)
                 (A) (A) (A) (A) (A) (A) (A)
       Virtual   (A) (A) (A) (A) (A) (A) (A) (A) (A) (A) (A) (A)
                 (A) (A) (A) (A) (A) (A) (A) (A) (A) (A) (A) (A)
                 (A) (A) (A) (A) (A) (A) (A) (A) (A) (A) (A) (A)
                 (A) (A) (A) (A) (A) (A) (A) (A) (A) (A) (A) (A)
                 (A) (A) (A) (A) (A) (A) (A) (A) (A) (A) (A) (A)
                 (A) (A) (A) (A) (A) (A) (A) (A) (A) (A) (A) (A)
                 (A) (A) (A) (A) (A) (A) (A) (A) (A) (A) (A) (A)
                 (A) (A) (A) (A) (A) (A) (A) (A) (A) (A) (A) (A)
                 (A) (A) (A) (A) (A) (A) (A) (A) (A) (A) (A) (A)
                 (A) (A) (A) (A) (A) (A) (A) (A) (A) (A) (A) (A)
                 (A) (A) (A) (A) (A) (A) (A) (A) (A) (A) (A) (A)
                 (A) (A) (A) (A) (A) (A) (A) (A) (A) (A) (A) (A)
                 (A) (A) (A) (A) (A) (A) (A) (A) (A) (A) (A) (A)
                 (A) (A) (A) (A) (A) (A) (A) (A) (A) (A) (A) (A)
                 (A) (A) (A) (A) (A) (A) (A) (A) (A) (A) (A) (A)
                 (A) (A) (A) (A) (A) (A) (A) (A) (A) (A) (A) (A)
                 (A) (A) (A) (A) (A) (A) (A) (A) (A) (A) (A) (A)
                 (A) (A) (A) (A) (A) (A) (A) (A) (A) (A) (A) (A)
 The electronic state is 1-A.
 Alpha  occ. eigenvalues --  -19.28052 -19.27226 -19.27201 -19.26529 -19.25564
 Alpha  occ. eigenvalues --  -10.36049 -10.31683 -10.31619 -10.31493 -10.31378
 Alpha  occ. eigenvalues --  -10.30345  -1.14563  -1.08758  -1.07361  -1.05043
 Alpha  occ. eigenvalues --   -1.04229  -0.82080  -0.80737  -0.70920  -0.68093
 Alpha  occ. eigenvalues --   -0.64869  -0.60348  -0.57737  -0.56092  -0.54530
 Alpha  occ. eigenvalues --   -0.51958  -0.50483  -0.49250  -0.47436  -0.46011
 Alpha  occ. eigenvalues --   -0.44132  -0.43197  -0.42316  -0.40895  -0.38883
 Alpha  occ. eigenvalues --   -0.38121  -0.37499  -0.35427  -0.32518  -0.32197
 Alpha  occ. eigenvalues --   -0.30984  -0.29480  -0.27379
 Alpha virt. eigenvalues --    0.00121   0.01653   0.01933   0.02441   0.04382
 Alpha virt. eigenvalues --    0.04534   0.04907   0.05313   0.06034   0.08277
 Alpha virt. eigenvalues --    0.08999   0.09470   0.10132   0.10822   0.11834
 Alpha virt. eigenvalues --    0.11997   0.12470   0.13232   0.14045   0.14412
 Alpha virt. eigenvalues --    0.15641   0.15852   0.16576   0.17043   0.17340
 Alpha virt. eigenvalues --    0.17744   0.18278   0.19997   0.20264   0.21037
 Alpha virt. eigenvalues --    0.21357   0.22297   0.22725   0.23325   0.23770
 Alpha virt. eigenvalues --    0.24833   0.24941   0.25946   0.26389   0.27319
 Alpha virt. eigenvalues --    0.28043   0.28583   0.29171   0.30645   0.30900
 Alpha virt. eigenvalues --    0.31690   0.32182   0.32725   0.33605   0.34393
 Alpha virt. eigenvalues --    0.34694   0.35489   0.35998   0.36725   0.37305
 Alpha virt. eigenvalues --    0.37778   0.39108   0.39272   0.40220   0.40883
 Alpha virt. eigenvalues --    0.42369   0.43149   0.44522   0.47275   0.47487
 Alpha virt. eigenvalues --    0.49216   0.64407   0.66477   0.67063   0.69677
 Alpha virt. eigenvalues --    0.70367   0.71708   0.73582   0.75495   0.76761
 Alpha virt. eigenvalues --    0.79288   0.81313   0.81967   0.84166   0.85378
 Alpha virt. eigenvalues --    0.86745   0.92384   0.97015   0.97814   0.99257
 Alpha virt. eigenvalues --    1.01230   1.03705   1.04663   1.05411   1.07810
 Alpha virt. eigenvalues --    1.09860   1.09966   1.12715   1.13686   1.15654
 Alpha virt. eigenvalues --    1.16617   1.19369   1.22732   1.26127   1.27114
 Alpha virt. eigenvalues --    1.28283   1.30365   1.32258   1.33075   1.35405
 Alpha virt. eigenvalues --    1.36130   1.36916   1.37655   1.40343   1.44461
 Alpha virt. eigenvalues --    1.44769   1.46210   1.47704   1.48723   1.51932
 Alpha virt. eigenvalues --    1.52845   1.54169   1.57174   1.58319   1.60640
 Alpha virt. eigenvalues --    1.61452   1.62673   1.67116   1.67587   1.70212
 Alpha virt. eigenvalues --    1.70536   1.73436   1.74600   1.76018   1.77838
 Alpha virt. eigenvalues --    1.79164   1.83725   1.86141   1.88455   1.90148
 Alpha virt. eigenvalues --    1.91473   1.94299   1.96024   1.97782   1.98542
 Alpha virt. eigenvalues --    2.01207   2.02725   2.05194   2.07316   2.07612
 Alpha virt. eigenvalues --    2.10150   2.12317   2.13573   2.16844   2.17565
 Alpha virt. eigenvalues --    2.20494   2.21430   2.23623   2.24144   2.29227
 Alpha virt. eigenvalues --    2.32794   2.36006   2.38736   2.41613   2.44210
 Alpha virt. eigenvalues --    2.44498   2.45321   2.46109   2.51238   2.53416
 Alpha virt. eigenvalues --    2.56230   2.57296   2.58199   2.62156   2.63534
 Alpha virt. eigenvalues --    2.64300   2.66498   2.69386   2.70562   2.70956
 Alpha virt. eigenvalues --    2.72181   2.74483   2.76148   2.78589   2.81042
 Alpha virt. eigenvalues --    2.82844   2.83428   2.87582   2.87687   2.90974
 Alpha virt. eigenvalues --    2.93306   2.94640   2.97102   3.00036   3.02562
 Alpha virt. eigenvalues --    3.04597   3.07716   3.13085   3.13270   3.16886
 Alpha virt. eigenvalues --    3.36377   3.43908   3.44487   3.47745   3.48869
 Alpha virt. eigenvalues --    3.50663   3.53198   3.54559   3.59680   3.61393
 Alpha virt. eigenvalues --    4.25882   4.36324   4.41217   4.45705   4.50873
 Alpha virt. eigenvalues --    4.56130   4.64847   4.81163   4.91142   4.94261
 Alpha virt. eigenvalues --    4.96826
          Condensed to atoms (all electrons):
              1          2          3          4          5          6
     1  C    5.773751  -0.442053  -0.528889  -0.489454   0.490439   0.254475
     2  C   -0.442053   7.304940  -0.141222   0.490299  -0.540644  -0.741546
     3  C   -0.528889  -0.141222   6.842387   0.571638  -1.177478  -0.198311
     4  C   -0.489454   0.490299   0.571638   6.899016  -1.216393  -0.557226
     5  C    0.490439  -0.540644  -1.177478  -1.216393   7.475650   0.448246
     6  C    0.254475  -0.741546  -0.198311  -0.557226   0.448246   6.405913
     7  O   -0.034628   0.092978   0.302472  -0.041470  -0.102071  -0.038243
     8  O    0.157423  -0.108961   0.338668   0.042983  -0.180443  -0.035745
     9  O    0.034559  -0.148759  -0.013999  -0.186220   0.051453   0.319109
    10  O    0.025553  -0.059712  -0.027011   0.101331   0.038684  -0.054228
    11  O    0.026845  -0.039021  -0.099713  -0.170998   0.326796   0.043697
    12  H    0.516582  -0.205484   0.013888  -0.035229   0.021137   0.043894
    13  H    0.372912   0.000617  -0.016049  -0.000436   0.005394   0.018593
    14  H    0.004662   0.277024  -0.003386  -0.009335   0.018275   0.045991
    15  H    0.005193   0.032278   0.325018   0.011586  -0.000531  -0.004635
    16  H   -0.003887   0.002095   0.008587   0.289504   0.029693  -0.011901
    17  H   -0.003519   0.001037  -0.035632  -0.033227   0.402832  -0.014112
    18  H    0.010055  -0.011637   0.005155   0.012024  -0.019257   0.315805
    19  H   -0.009236  -0.030710   0.002943   0.020039  -0.004757   0.028015
    20  H   -0.007253   0.004922   0.013316   0.058027  -0.088284   0.012551
    21  H    0.003011   0.003050  -0.033609  -0.031396   0.040581  -0.007579
              7          8          9         10         11         12
     1  C   -0.034628   0.157423   0.034559   0.025553   0.026845   0.516582
     2  C    0.092978  -0.108961  -0.148759  -0.059712  -0.039021  -0.205484
     3  C    0.302472   0.338668  -0.013999  -0.027011  -0.099713   0.013888
     4  C   -0.041470   0.042983  -0.186220   0.101331  -0.170998  -0.035229
     5  C   -0.102071  -0.180443   0.051453   0.038684   0.326796   0.021137
     6  C   -0.038243  -0.035745   0.319109  -0.054228   0.043697   0.043894
     7  O    8.209038  -0.042892   0.011628   0.006625   0.007837   0.013443
     8  O   -0.042892   8.321022  -0.003390   0.017982  -0.017817  -0.044422
     9  O    0.011628  -0.003390   8.275805   0.012239  -0.000360   0.009361
    10  O    0.006625   0.017982   0.012239   8.356964   0.003108  -0.007437
    11  O    0.007837  -0.017817  -0.000360   0.003108   8.241157   0.000743
    12  H    0.013443  -0.044422   0.009361  -0.007437   0.000743   0.510078
    13  H   -0.002502  -0.048327  -0.001450   0.001206  -0.000209  -0.036154
    14  H   -0.028184   0.006811  -0.002556  -0.000564   0.000053   0.002802
    15  H   -0.039798  -0.045703  -0.000032  -0.000359   0.000997  -0.000234
    16  H   -0.000499   0.000379   0.002604  -0.043004   0.003804  -0.000049
    17  H    0.001095   0.008262  -0.000703   0.006518  -0.050912  -0.000030
    18  H    0.002078  -0.001477  -0.035992   0.005300   0.000269   0.000172
    19  H    0.000231   0.000162   0.235428  -0.000406  -0.000006  -0.000032
    20  H   -0.000145  -0.003808  -0.001182   0.223037   0.033786   0.000276
    21  H    0.000432   0.028350  -0.000031   0.000574   0.247637  -0.000298
             13         14         15         16         17         18
     1  C    0.372912   0.004662   0.005193  -0.003887  -0.003519   0.010055
     2  C    0.000617   0.277024   0.032278   0.002095   0.001037  -0.011637
     3  C   -0.016049  -0.003386   0.325018   0.008587  -0.035632   0.005155
     4  C   -0.000436  -0.009335   0.011586   0.289504  -0.033227   0.012024
     5  C    0.005394   0.018275  -0.000531   0.029693   0.402832  -0.019257
     6  C    0.018593   0.045991  -0.004635  -0.011901  -0.014112   0.315805
     7  O   -0.002502  -0.028184  -0.039798  -0.000499   0.001095   0.002078
     8  O   -0.048327   0.006811  -0.045703   0.000379   0.008262  -0.001477
     9  O   -0.001450  -0.002556  -0.000032   0.002604  -0.000703  -0.035992
    10  O    0.001206  -0.000564  -0.000359  -0.043004   0.006518   0.005300
    11  O   -0.000209   0.000053   0.000997   0.003804  -0.050912   0.000269
    12  H   -0.036154   0.002802  -0.000234  -0.000049  -0.000030   0.000172
    13  H    0.534716  -0.003686   0.000212   0.000004   0.000012  -0.000129
    14  H   -0.003686   0.503114   0.000016  -0.000120  -0.000017  -0.006158
    15  H    0.000212   0.000016   0.527180  -0.000145  -0.003547  -0.000083
    16  H    0.000004  -0.000120  -0.000145   0.571695  -0.003939  -0.005247
    17  H    0.000012  -0.000017  -0.003547  -0.003939   0.527007   0.000697
    18  H   -0.000129  -0.006158  -0.000083  -0.005247   0.000697   0.549878
    19  H   -0.000004   0.002521   0.000000  -0.000126   0.000004  -0.008671
    20  H   -0.000012   0.000006  -0.000017  -0.004018   0.000529  -0.000172
    21  H    0.000043  -0.000002  -0.000266  -0.000249   0.005724   0.000003
             19         20         21
     1  C   -0.009236  -0.007253   0.003011
     2  C   -0.030710   0.004922   0.003050
     3  C    0.002943   0.013316  -0.033609
     4  C    0.020039   0.058027  -0.031396
     5  C   -0.004757  -0.088284   0.040581
     6  C    0.028015   0.012551  -0.007579
     7  O    0.000231  -0.000145   0.000432
     8  O    0.000162  -0.003808   0.028350
     9  O    0.235428  -0.001182  -0.000031
    10  O   -0.000406   0.223037   0.000574
    11  O   -0.000006   0.033786   0.247637
    12  H   -0.000032   0.000276  -0.000298
    13  H   -0.000004  -0.000012   0.000043
    14  H    0.002521   0.000006  -0.000002
    15  H    0.000000  -0.000017  -0.000266
    16  H   -0.000126  -0.004018  -0.000249
    17  H    0.000004   0.000529   0.005724
    18  H   -0.008671  -0.000172   0.000003
    19  H    0.367929   0.000003   0.000000
    20  H    0.000003   0.363112  -0.003184
    21  H    0.000000  -0.003184   0.354332
 Mulliken atomic charges:
              1
     1  C   -0.156540
     2  C    0.260509
     3  C   -0.148774
     4  C    0.274936
     5  C   -0.019320
     6  C   -0.272761
     7  O   -0.317422
     8  O   -0.389057
     9  O   -0.557511
    10  O   -0.606399
    11  O   -0.557692
    12  H    0.196996
    13  H    0.175249
    14  H    0.192732
    15  H    0.192870
    16  H    0.164819
    17  H    0.191920
    18  H    0.187387
    19  H    0.396672
    20  H    0.398510
    21  H    0.392877
 Sum of Mulliken atomic charges =   0.00000
 Mulliken charges with hydrogens summed into heavy atoms:
              1
     1  C    0.215705
     2  C    0.453241
     3  C    0.044095
     4  C    0.439755
     5  C    0.172600
     6  C   -0.085374
     7  O   -0.317422
     8  O   -0.389057
     9  O   -0.160839
    10  O   -0.207888
    11  O   -0.164815
 Sum of Mulliken charges with hydrogens summed into heavy atoms =   0.00000
 Electronic spatial extent (au):  <R**2>=           1379.2386
 Charge=              0.0000 electrons
 Dipole moment (field-independent basis, Debye):
    X=             -1.7813    Y=              1.7529    Z=             -1.8794  Tot=              3.1269
 Quadrupole moment (field-independent basis, Debye-Ang):
   XX=            -59.9868   YY=            -69.3925   ZZ=            -63.6579
   XY=             -5.9976   XZ=              4.2770   YZ=              3.6114
 Traceless Quadrupole moment (field-independent basis, Debye-Ang):
   XX=              4.3589   YY=             -5.0467   ZZ=              0.6878
   XY=             -5.9976   XZ=              4.2770   YZ=              3.6114
 Octapole moment (field-independent basis, Debye-Ang**2):
  XXX=            -37.1658  YYY=             -2.7124  ZZZ=              2.2433  XYY=              2.0194
  XXY=             22.1145  XXZ=             -7.2512  XZZ=              3.0018  YZZ=             -6.6339
  YYZ=              4.3481  XYZ=            -12.3191
 Hexadecapole moment (field-independent basis, Debye-Ang**3):
 XXXX=           -670.3338 YYYY=           -621.4177 ZZZZ=           -304.2998 XXXY=              7.0648
 XXXZ=             48.3641 YYYX=            -23.1563 YYYZ=              6.7738 ZZZX=              3.0149
 ZZZY=              3.4162 XXYY=           -249.9464 XXZZ=           -166.6271 YYZZ=           -156.1786
 XXYZ=            -15.4635 YYXZ=              6.4260 ZZXY=            -13.1125
 N-N= 7.332831358744D+02 E-N=-2.896606533719D+03  KE= 6.052015110403D+02
 1\1\GINC-COMPUTE-8-11\SP\RmPW1PW91\6-31+G(d,p)\C6H10O5\MMARCARINO.IQUI
 R\12-Apr-2019\0\\# mpw1pw91/6-31+g** nmr scrf=(pcm,solvent=water)\\com
 ment\\0,1\C,0,-0.415048,1.277628,1.228072\C,0,-1.028955,1.14044,-0.174
 915\C,0,1.164151,0.970552,-0.415082\C,0,-0.160661,-1.243282,-0.415493\
 C,0,1.190768,-0.528845,-0.753265\C,0,-1.36046,-0.297976,-0.61418\O,0,0
 .052398,1.592452,-1.016989\O,0,1.007453,1.1436,0.992322\O,0,-2.485643,
 -0.834902,0.068064\O,0,-0.145645,-1.709382,0.928299\O,0,2.259885,-1.15
 8014,-0.046433\H,0,-0.755184,0.500354,1.912951\H,0,-0.600947,2.267902,
 1.655239\H,0,-1.882471,1.803142,-0.335732\H,0,2.081046,1.472111,-0.736
 197\H,0,-0.277763,-2.1029,-1.092517\H,0,1.40399,-0.639323,-1.820747\H,
 0,-1.551116,-0.243461,-1.695489\H,0,-3.273266,-0.379585,-0.270743\H,0,
 0.721432,-2.141912,1.026869\H,0,2.287934,-0.717468,0.823436\\Version=E
 M64L-G09RevC.01\State=1-A\HF=-610.6452367\RMSD=7.685e-09\Dipole=-0.700
 8099,0.6896404,-0.7394211\Quadrupole=3.2407615,-3.7521153,0.5113539,-4
 .4591029,3.1798686,2.6849512\PG=C01 [X(C6H10O5)]\\@


 SUPPORT THE RIGHT TO ARM BEARS!
 (ADD A CLAWS TO THE BILL OF RIGHTS)
 Job cpu time:  0 days  0 hours 20 minutes 37.8 seconds.
 File lengths (MBytes):  RWF=     82 Int=      0 D2E=      0 Chk=      5 Scr=      1
 Normal termination of Gaussian 09 at Fri Apr 12 12:10:02 2019.
