 Entering Gaussian System, Link 0=g09
 Input=/home/asarotti.iquir/SCF3/06_SSS_Levo03_OPTB_energy_b3lyp_smd.gjc
 Output=/home/asarotti.iquir/SCF3/06_SSS_Levo03_OPTB_energy_b3lyp_smd.log
 Initial command:
 /share/apps/Gaussian09/EM64T.SSE4.2-enabled/g09/l1.exe /tmp/Gau-33728.inp -scrdir=/tmp/
 Entering Link 1 = /share/apps/Gaussian09/EM64T.SSE4.2-enabled/g09/l1.exe PID=     33729.
  
 Copyright (c) 1988,1990,1992,1993,1995,1998,2003,2009,2011,
            Gaussian, Inc.  All Rights Reserved.
  
 This is part of the Gaussian(R) 09 program.  It is based on
 the Gaussian(R) 03 system (copyright 2003, Gaussian, Inc.),
 the Gaussian(R) 98 system (copyright 1998, Gaussian, Inc.),
 the Gaussian(R) 94 system (copyright 1995, Gaussian, Inc.),
 the Gaussian 92(TM) system (copyright 1992, Gaussian, Inc.),
 the Gaussian 90(TM) system (copyright 1990, Gaussian, Inc.),
 the Gaussian 88(TM) system (copyright 1988, Gaussian, Inc.),
 the Gaussian 86(TM) system (copyright 1986, Carnegie Mellon
 University), and the Gaussian 82(TM) system (copyright 1983,
 Carnegie Mellon University). Gaussian is a federally registered
 trademark of Gaussian, Inc.
  
 This software contains proprietary and confidential information,
 including trade secrets, belonging to Gaussian, Inc.
  
 This software is provided under written license and may be
 used, copied, transmitted, or stored only in accord with that
 written license.
  
 The following legend is applicable only to US Government
 contracts under FAR:
  
                    RESTRICTED RIGHTS LEGEND
  
 Use, reproduction and disclosure by the US Government is
 subject to restrictions as set forth in subparagraphs (a)
 and (c) of the Commercial Computer Software - Restricted
 Rights clause in FAR 52.227-19.
  
 Gaussian, Inc.
 340 Quinnipiac St., Bldg. 40, Wallingford CT 06492
  
  
 ---------------------------------------------------------------
 Warning -- This program may not be used in any manner that
 competes with the business of Gaussian, Inc. or will provide
 assistance to any competitor of Gaussian, Inc.  The licensee
 of this program is prohibited from giving any competitor of
 Gaussian, Inc. access to this program.  By using this program,
 the user acknowledges that Gaussian, Inc. is engaged in the
 business of creating and licensing software in the field of
 computational chemistry and represents and warrants to the
 licensee that it is not a competitor of Gaussian, Inc. and that
 it will not use this program in any manner prohibited above.
 ---------------------------------------------------------------
  

 Cite this work as:
 Gaussian 09, Revision C.01,
 M. J. Frisch, G. W. Trucks, H. B. Schlegel, G. E. Scuseria, 
 M. A. Robb, J. R. Cheeseman, G. Scalmani, V. Barone, B. Mennucci, 
 G. A. Petersson, H. Nakatsuji, M. Caricato, X. Li, H. P. Hratchian, 
 A. F. Izmaylov, J. Bloino, G. Zheng, J. L. Sonnenberg, M. Hada, 
 M. Ehara, K. Toyota, R. Fukuda, J. Hasegawa, M. Ishida, T. Nakajima, 
 Y. Honda, O. Kitao, H. Nakai, T. Vreven, J. A. Montgomery, Jr., 
 J. E. Peralta, F. Ogliaro, M. Bearpark, J. J. Heyd, E. Brothers, 
 K. N. Kudin, V. N. Staroverov, T. Keith, R. Kobayashi, J. Normand, 
 K. Raghavachari, A. Rendell, J. C. Burant, S. S. Iyengar, J. Tomasi, 
 M. Cossi, N. Rega, J. M. Millam, M. Klene, J. E. Knox, J. B. Cross, 
 V. Bakken, C. Adamo, J. Jaramillo, R. Gomperts, R. E. Stratmann, 
 O. Yazyev, A. J. Austin, R. Cammi, C. Pomelli, J. W. Ochterski, 
 R. L. Martin, K. Morokuma, V. G. Zakrzewski, G. A. Voth, 
 P. Salvador, J. J. Dannenberg, S. Dapprich, A. D. Daniels, 
 O. Farkas, J. B. Foresman, J. V. Ortiz, J. Cioslowski, 
 and D. J. Fox, Gaussian, Inc., Wallingford CT, 2010.
 
 ******************************************
 Gaussian 09:  EM64L-G09RevC.01 23-Sep-2011
                15-Apr-2019 
 ******************************************
 %nprocshared=4
 Will use up to    4 processors via shared memory.
 -----------------------------------------------------------
 # B3LYP/6-31+G** test scrf=(pcm,solvent=water,smd,dovacuum)
 -----------------------------------------------------------
 1/38=1/1;
 2/12=2,17=6,18=5,40=1/2;
 3/5=1,6=6,7=111,11=2,16=1,25=1,30=1,70=32101,72=1,74=-5/1,2,3;
 4//1;
 5/5=2,38=5,53=1/2;
 6/7=2,8=2,9=2,10=2,28=1/1;
 99/5=1,9=1/99;
 -------
 comment
 -------
 Charge =  0 Multiplicity = 1
 Symbolic Z-Matrix:
 6                    -1.04459   1.20102   1.07054 
 6                    -1.29703   0.86082  -0.39322 
 6                     0.89646   1.21011  -0.20759 
 6                     0.25462  -1.19466  -0.39164 
 6                     1.37873  -0.17656  -0.66932 
 6                    -1.15076  -0.6385   -0.74559 
 8                    -0.20699   1.57826  -1.01037 
 8                     0.40244   1.14742   1.15376 
 8                    -2.15487  -1.42312  -0.12351 
 8                     0.30412  -1.59393   0.99296 
 8                     2.59585  -0.57234  -0.06111 
 1                    -1.47385   0.49112   1.78106 
 1                    -1.39059   2.21111   1.31118 
 1                    -2.23568   1.26182  -0.77869 
 1                     1.67361   1.97484  -0.27851 
 1                     0.42485  -2.11781  -0.95225 
 1                     1.55717  -0.10296  -1.74775 
 1                    -1.28595  -0.72005  -1.8301 
 1                    -1.73951  -1.78212   0.68363 
 1                     0.36857  -0.76368   1.50909 
 1                     2.35244  -1.11605   0.70947 
 
                          Input orientation:                          
 ---------------------------------------------------------------------
 Center     Atomic      Atomic             Coordinates (Angstroms)
 Number     Number       Type             X           Y           Z
 ---------------------------------------------------------------------
      1          6           0       -1.044587    1.201023    1.070538
      2          6           0       -1.297031    0.860818   -0.393221
      3          6           0        0.896459    1.210113   -0.207591
      4          6           0        0.254617   -1.194656   -0.391639
      5          6           0        1.378732   -0.176561   -0.669315
      6          6           0       -1.150759   -0.638495   -0.745586
      7          8           0       -0.206992    1.578261   -1.010372
      8          8           0        0.402440    1.147420    1.153755
      9          8           0       -2.154868   -1.423123   -0.123508
     10          8           0        0.304118   -1.593931    0.992957
     11          8           0        2.595848   -0.572335   -0.061113
     12          1           0       -1.473850    0.491122    1.781055
     13          1           0       -1.390592    2.211112    1.311177
     14          1           0       -2.235684    1.261825   -0.778690
     15          1           0        1.673607    1.974839   -0.278505
     16          1           0        0.424850   -2.117814   -0.952251
     17          1           0        1.557169   -0.102963   -1.747746
     18          1           0       -1.285949   -0.720051   -1.830096
     19          1           0       -1.739509   -1.782122    0.683630
     20          1           0        0.368567   -0.763679    1.509090
     21          1           0        2.352440   -1.116049    0.709469
 ---------------------------------------------------------------------
                    Distance matrix (angstroms):
                    1          2          3          4          5
     1  C    0.000000
     2  C    1.523830   0.000000
     3  C    2.324082   2.228871   0.000000
     4  C    3.092761   2.575381   2.495746   0.000000
     5  C    3.285925   2.883070   1.539039   1.541835   0.000000
     6  C    2.587162   1.547093   2.810319   1.552313   2.572455
     7  O    2.274656   1.443532   1.413363   2.878364   2.389611
     8  O    1.450409   2.315918   1.449568   2.809878   2.455536
     9  O    3.089436   2.454591   4.031327   2.435099   3.786575
    10  O    3.104318   3.242061   3.107225   1.441866   2.434519
    11  O    4.204545   4.161578   2.467083   2.444973   1.417010
    12  H    1.092273   2.212559   3.176480   3.248083   3.819337
    13  H    1.094489   2.176470   2.922201   4.147957   4.158424
    14  H    2.200467   1.091083   3.184203   3.519333   3.891647
    15  H    3.131659   3.174727   1.092609   3.474483   2.206401
    16  H    4.155189   3.485633   3.442678   1.093383   2.181377
    17  H    4.051202   3.303039   2.129034   2.174273   1.095568
    18  H    3.487472   2.136324   3.334810   2.160498   2.956910
    19  H    3.087356   2.887997   4.086083   2.340482   3.759217
    20  H    2.459550   3.005328   2.668617   1.952305   2.471961
    21  H    4.127831   4.294481   2.893425   2.370544   1.931784
                    6          7          8          9         10
     6  C    0.000000
     7  O    2.423802   0.000000
     8  O    3.034702   2.289209   0.000000
     9  O    1.418047   3.686333   3.844336   0.000000
    10  O    2.460093   3.786471   2.747823   2.705971   0.000000
    11  O    3.809192   3.658151   3.040477   4.826700   2.721534
    12  H    2.786456   3.252517   2.084394   2.784866   2.851265
    13  H    3.522507   2.681604   2.090738   3.981219   4.177518
    14  H    2.188464   2.066253   3.272175   2.764912   4.212442
    15  H    3.876174   2.056588   2.086110   5.121268   4.028428
    16  H    2.171092   3.750143   3.885552   2.797205   2.018134
    17  H    2.936664   2.546075   3.363862   4.261477   3.362228
    18  H    1.095942   2.668021   3.904033   2.040042   3.355832
    19  H    1.922802   4.063302   3.659396   0.976153   2.075454
    20  H    2.721688   3.487641   1.944148   3.077006   0.979727
    21  H    3.823303   4.094857   3.020461   4.593906   2.122348
                   11         12         13         14         15
    11  O    0.000000
    12  H    4.592055   0.000000
    13  H    5.051976   1.784960   0.000000
    14  H    5.217544   2.779689   2.445991   0.000000
    15  H    2.717698   4.043475   3.460091   4.005138   0.000000
    16  H    2.809958   4.228779   5.211385   4.304710   4.331644
    17  H    2.035656   4.689611   4.837484   4.145775   2.547447
    18  H    4.268427   3.813484   4.297704   2.436244   4.292882
    19  H    4.562187   2.538219   4.057274   3.413236   5.166219
    20  H    2.731836   2.245660   3.461675   4.014813   3.521094
    21  H    0.973996   4.286233   5.044040   5.377712   3.315192
                   16         17         18         19         20
    16  H    0.000000
    17  H    2.444296   0.000000
    18  H    2.377222   2.910481   0.000000
    19  H    2.733724   4.427104   2.766321   0.000000
    20  H    2.809813   3.529349   3.726861   2.482457   0.000000
    21  H    2.735041   2.774294   4.454669   4.145886   2.167789
                   21
    21  H    0.000000
 Stoichiometry    C6H10O5
 Framework group  C1[X(C6H10O5)]
 Deg. of freedom    57
 Full point group                 C1      NOp   1
 Largest Abelian subgroup         C1      NOp   1
 Largest concise Abelian subgroup C1      NOp   1
                         Standard orientation:                         
 ---------------------------------------------------------------------
 Center     Atomic      Atomic             Coordinates (Angstroms)
 Number     Number       Type             X           Y           Z
 ---------------------------------------------------------------------
      1          6           0       -1.044587    1.201023    1.070538
      2          6           0       -1.297031    0.860818   -0.393221
      3          6           0        0.896459    1.210113   -0.207591
      4          6           0        0.254617   -1.194656   -0.391639
      5          6           0        1.378732   -0.176561   -0.669315
      6          6           0       -1.150759   -0.638495   -0.745586
      7          8           0       -0.206992    1.578261   -1.010372
      8          8           0        0.402440    1.147420    1.153755
      9          8           0       -2.154868   -1.423123   -0.123508
     10          8           0        0.304118   -1.593931    0.992957
     11          8           0        2.595848   -0.572335   -0.061113
     12          1           0       -1.473850    0.491122    1.781055
     13          1           0       -1.390592    2.211112    1.311177
     14          1           0       -2.235684    1.261825   -0.778690
     15          1           0        1.673607    1.974839   -0.278505
     16          1           0        0.424850   -2.117814   -0.952251
     17          1           0        1.557169   -0.102963   -1.747746
     18          1           0       -1.285949   -0.720051   -1.830096
     19          1           0       -1.739509   -1.782122    0.683630
     20          1           0        0.368567   -0.763679    1.509090
     21          1           0        2.352440   -1.116049    0.709469
 ---------------------------------------------------------------------
 Rotational constants (GHZ):      1.5506582      1.2816863      0.9709814
 Standard basis: 6-31+G(d,p) (6D, 7F)
 There are   259 symmetry adapted basis functions of A   symmetry.
 Integral buffers will be    131072 words long.
 Raffenetti 2 integral format.
 Two-electron integral symmetry is turned on.
   259 basis functions,   422 primitive gaussians,   259 cartesian basis functions
    43 alpha electrons       43 beta electrons
       nuclear repulsion energy       736.5487922364 Hartrees.
 NAtoms=   21 NActive=   21 NUniq=   21 SFac= 1.00D+00 NAtFMM=   60 NAOKFM=F Big=F
 ------------------------------------------------------------------------------
 Polarizable Continuum Model (PCM)
 =================================
 Model                : C-PCM.
 Atomic radii         : SMD-Coulomb.
 Polarization charges : Total charges.
 Charge compensation  : None.
 Solution method      : Matrix inversion.
 Cavity type          : VdW (van der Waals Surface) (Alpha=1.000).
 Cavity algorithm     : GePol (No added spheres)
                        Default sphere list used, NSphG=   21.
                        Lebedev-Laikov grids with approx.  5.0 points / Ang**2.
                        Smoothing algorithm: Karplus/York (Gamma=1.0000).
                        Polarization charges: spherical gaussians, with
                                              point-specific exponents (IZeta= 3).
                        Self-potential: point-specific (ISelfS= 7).
                        Self-field    : sphere-specific E.n sum rule (ISelfD= 2).
 Solvent              : Water, Eps=  78.355300 Eps(inf)=   1.777849
 ------------------------------------------------------------------------------
 ------------------------------------------------------------------------------
 Atomic radii for non-electrostatic terms: SMD-CDS.
 ------------------------------------------------------------------------------
 Nuclear repulsion after PCM non-electrostatic terms =      736.5530815107 Hartrees.
 One-electron integrals computed using PRISM.
 NBasis=   259 RedAO= T  NBF=   259
 NBsUse=   259 1.00D-06 NBFU=   259
 Harris functional with IExCor=  402 diagonalized for initial guess.
 ExpMin= 4.38D-02 ExpMax= 5.48D+03 ExpMxC= 8.25D+02 IAcc=2 IRadAn=         4 AccDes= 0.00D+00
 HarFok:  IExCor=  402 AccDes= 0.00D+00 IRadAn=         4 IDoV= 1
 ScaDFX=  1.000000  1.000000  1.000000  1.000000
 FoFCou: FMM=F IPFlag=           0 FMFlag=      100000 FMFlg1=           0
         NFxFlg=           0 DoJE=T BraDBF=F KetDBF=T FulRan=T
         Omega=  0.000000  0.000000  1.000000  0.000000  0.000000 ICntrl=     500 IOpCl=  0
         NMat0=    1 NMatS0=    1 NMatT0=    0 NMatD0=    1 NMtDS0=    0 NMtDT0=    0
         I1Cent=           4 NGrid=           0.
 Petite list used in FoFCou.
 Initial guess orbital symmetries:
       Occupied  (A) (A) (A) (A) (A) (A) (A) (A) (A) (A) (A) (A)
                 (A) (A) (A) (A) (A) (A) (A) (A) (A) (A) (A) (A)
                 (A) (A) (A) (A) (A) (A) (A) (A) (A) (A) (A) (A)
                 (A) (A) (A) (A) (A) (A) (A)
       Virtual   (A) (A) (A) (A) (A) (A) (A) (A) (A) (A) (A) (A)
                 (A) (A) (A) (A) (A) (A) (A) (A) (A) (A) (A) (A)
                 (A) (A) (A) (A) (A) (A) (A) (A) (A) (A) (A) (A)
                 (A) (A) (A) (A) (A) (A) (A) (A) (A) (A) (A) (A)
                 (A) (A) (A) (A) (A) (A) (A) (A) (A) (A) (A) (A)
                 (A) (A) (A) (A) (A) (A) (A) (A) (A) (A) (A) (A)
                 (A) (A) (A) (A) (A) (A) (A) (A) (A) (A) (A) (A)
                 (A) (A) (A) (A) (A) (A) (A) (A) (A) (A) (A) (A)
                 (A) (A) (A) (A) (A) (A) (A) (A) (A) (A) (A) (A)
                 (A) (A) (A) (A) (A) (A) (A) (A) (A) (A) (A) (A)
                 (A) (A) (A) (A) (A) (A) (A) (A) (A) (A) (A) (A)
                 (A) (A) (A) (A) (A) (A) (A) (A) (A) (A) (A) (A)
                 (A) (A) (A) (A) (A) (A) (A) (A) (A) (A) (A) (A)
                 (A) (A) (A) (A) (A) (A) (A) (A) (A) (A) (A) (A)
                 (A) (A) (A) (A) (A) (A) (A) (A) (A) (A) (A) (A)
                 (A) (A) (A) (A) (A) (A) (A) (A) (A) (A) (A) (A)
                 (A) (A) (A) (A) (A) (A) (A) (A) (A) (A) (A) (A)
                 (A) (A) (A) (A) (A) (A) (A) (A) (A) (A) (A) (A)
 The electronic state of the initial guess is 1-A.
 Requested convergence on RMS density matrix=1.00D-08 within 128 cycles.
 Requested convergence on MAX density matrix=1.00D-06.
 Requested convergence on             energy=1.00D-06.
 No special actions if energy rises.
 Error on total polarization charges =  0.05786
 SCF Done:  E(RB3LYP) =  -610.807624809     A.U. after   12 cycles
             Convg  =    0.6736D-08             -V/T =  2.0090
 SMD-CDS (non-electrostatic) energy       (kcal/mol) =       2.69
 (included in total energy above)

 **********************************************************************

            Population analysis using the SCF density.

 **********************************************************************

 Orbital symmetries:
       Occupied  (A) (A) (A) (A) (A) (A) (A) (A) (A) (A) (A) (A)
                 (A) (A) (A) (A) (A) (A) (A) (A) (A) (A) (A) (A)
                 (A) (A) (A) (A) (A) (A) (A) (A) (A) (A) (A) (A)
                 (A) (A) (A) (A) (A) (A) (A)
       Virtual   (A) (A) (A) (A) (A) (A) (A) (A) (A) (A) (A) (A)
                 (A) (A) (A) (A) (A) (A) (A) (A) (A) (A) (A) (A)
                 (A) (A) (A) (A) (A) (A) (A) (A) (A) (A) (A) (A)
                 (A) (A) (A) (A) (A) (A) (A) (A) (A) (A) (A) (A)
                 (A) (A) (A) (A) (A) (A) (A) (A) (A) (A) (A) (A)
                 (A) (A) (A) (A) (A) (A) (A) (A) (A) (A) (A) (A)
                 (A) (A) (A) (A) (A) (A) (A) (A) (A) (A) (A) (A)
                 (A) (A) (A) (A) (A) (A) (A) (A) (A) (A) (A) (A)
                 (A) (A) (A) (A) (A) (A) (A) (A) (A) (A) (A) (A)
                 (A) (A) (A) (A) (A) (A) (A) (A) (A) (A) (A) (A)
                 (A) (A) (A) (A) (A) (A) (A) (A) (A) (A) (A) (A)
                 (A) (A) (A) (A) (A) (A) (A) (A) (A) (A) (A) (A)
                 (A) (A) (A) (A) (A) (A) (A) (A) (A) (A) (A) (A)
                 (A) (A) (A) (A) (A) (A) (A) (A) (A) (A) (A) (A)
                 (A) (A) (A) (A) (A) (A) (A) (A) (A) (A) (A) (A)
                 (A) (A) (A) (A) (A) (A) (A) (A) (A) (A) (A) (A)
                 (A) (A) (A) (A) (A) (A) (A) (A) (A) (A) (A) (A)
                 (A) (A) (A) (A) (A) (A) (A) (A) (A) (A) (A) (A)
 The electronic state is 1-A.
 Alpha  occ. eigenvalues --  -19.18730 -19.18302 -19.17618 -19.17176 -19.16973
 Alpha  occ. eigenvalues --  -10.29546 -10.25279 -10.25027 -10.24936 -10.24919
 Alpha  occ. eigenvalues --  -10.24175  -1.11398  -1.06000  -1.04122  -1.02250
 Alpha  occ. eigenvalues --   -1.01271  -0.79343  -0.78193  -0.68200  -0.66297
 Alpha  occ. eigenvalues --   -0.61998  -0.59856  -0.56604  -0.52783  -0.51843
 Alpha  occ. eigenvalues --   -0.50045  -0.48946  -0.47636  -0.45092  -0.44860
 Alpha  occ. eigenvalues --   -0.43128  -0.41839  -0.41291  -0.39342  -0.37356
 Alpha  occ. eigenvalues --   -0.36471  -0.35068  -0.34182  -0.33142  -0.31268
 Alpha  occ. eigenvalues --   -0.29937  -0.28065  -0.26203
 Alpha virt. eigenvalues --    0.00305   0.02066   0.02486   0.02843   0.04567
 Alpha virt. eigenvalues --    0.04880   0.05046   0.05093   0.05839   0.08189
 Alpha virt. eigenvalues --    0.09052   0.09576   0.10728   0.10956   0.11900
 Alpha virt. eigenvalues --    0.12379   0.12753   0.13028   0.13893   0.14662
 Alpha virt. eigenvalues --    0.14737   0.15771   0.16533   0.17313   0.17363
 Alpha virt. eigenvalues --    0.17625   0.18364   0.19195   0.19769   0.21006
 Alpha virt. eigenvalues --    0.21440   0.21512   0.22207   0.23092   0.23430
 Alpha virt. eigenvalues --    0.24011   0.24539   0.24570   0.25442   0.26626
 Alpha virt. eigenvalues --    0.26862   0.27807   0.28319   0.29053   0.29730
 Alpha virt. eigenvalues --    0.30925   0.31837   0.32118   0.32972   0.33168
 Alpha virt. eigenvalues --    0.34031   0.34111   0.34666   0.36170   0.36394
 Alpha virt. eigenvalues --    0.36967   0.37379   0.38335   0.38771   0.39577
 Alpha virt. eigenvalues --    0.41397   0.42583   0.42795   0.45941   0.49205
 Alpha virt. eigenvalues --    0.51747   0.64716   0.65823   0.66144   0.68413
 Alpha virt. eigenvalues --    0.70221   0.70671   0.72124   0.73662   0.74640
 Alpha virt. eigenvalues --    0.78767   0.80111   0.82533   0.84218   0.85581
 Alpha virt. eigenvalues --    0.85912   0.91815   0.93922   0.96042   0.98826
 Alpha virt. eigenvalues --    1.00467   1.01827   1.03651   1.05625   1.06449
 Alpha virt. eigenvalues --    1.09234   1.10163   1.10676   1.12970   1.13480
 Alpha virt. eigenvalues --    1.17730   1.20021   1.21893   1.24022   1.26025
 Alpha virt. eigenvalues --    1.26925   1.28002   1.28950   1.30241   1.31598
 Alpha virt. eigenvalues --    1.34450   1.35579   1.36554   1.38615   1.38849
 Alpha virt. eigenvalues --    1.42602   1.44166   1.45684   1.46875   1.50040
 Alpha virt. eigenvalues --    1.52141   1.54232   1.56379   1.57307   1.60297
 Alpha virt. eigenvalues --    1.60734   1.63205   1.64934   1.66661   1.67156
 Alpha virt. eigenvalues --    1.68824   1.72168   1.73479   1.75758   1.77923
 Alpha virt. eigenvalues --    1.79324   1.80341   1.84392   1.87183   1.89553
 Alpha virt. eigenvalues --    1.91743   1.93169   1.93800   1.95133   1.96839
 Alpha virt. eigenvalues --    1.99784   2.04114   2.04403   2.05711   2.08061
 Alpha virt. eigenvalues --    2.10632   2.11455   2.12591   2.14610   2.15366
 Alpha virt. eigenvalues --    2.17781   2.20123   2.24232   2.25902   2.29187
 Alpha virt. eigenvalues --    2.30696   2.33641   2.35430   2.36603   2.43808
 Alpha virt. eigenvalues --    2.45495   2.45898   2.48835   2.50922   2.51996
 Alpha virt. eigenvalues --    2.53334   2.57297   2.57673   2.62389   2.62907
 Alpha virt. eigenvalues --    2.64501   2.64826   2.66861   2.67002   2.69901
 Alpha virt. eigenvalues --    2.70901   2.73275   2.76418   2.76674   2.80677
 Alpha virt. eigenvalues --    2.82696   2.84298   2.85252   2.90048   2.90379
 Alpha virt. eigenvalues --    2.93963   2.95473   2.97482   3.00528   3.03293
 Alpha virt. eigenvalues --    3.05038   3.06770   3.11360   3.12562   3.14306
 Alpha virt. eigenvalues --    3.33927   3.42957   3.44335   3.45333   3.46339
 Alpha virt. eigenvalues --    3.50651   3.51680   3.55538   3.57366   3.62510
 Alpha virt. eigenvalues --    4.23768   4.34479   4.38899   4.45524   4.48526
 Alpha virt. eigenvalues --    4.52297   4.62193   4.80983   4.87443   4.91302
 Alpha virt. eigenvalues --    4.94097
          Condensed to atoms (all electrons):
              1          2          3          4          5          6
     1  C    5.774217  -0.451879  -0.401558  -0.330420   0.345563   0.139574
     2  C   -0.451879   7.212914  -0.514571   0.595947  -0.045403  -0.931580
     3  C   -0.401558  -0.514571   6.804807   0.289513  -1.297386   0.429113
     4  C   -0.330420   0.595947   0.289513   6.427057  -0.765323  -0.537408
     5  C    0.345563  -0.045403  -1.297386  -0.765323   7.494073  -0.276092
     6  C    0.139574  -0.931580   0.429113  -0.537408  -0.276092   6.728824
     7  O    0.000748   0.040303   0.262440  -0.034597  -0.057113  -0.058090
     8  O    0.041597  -0.025031   0.237786   0.093910  -0.200734  -0.036037
     9  O    0.059816  -0.205234  -0.007726  -0.120147   0.043237   0.309146
    10  O    0.037904  -0.046798  -0.049826   0.125767   0.019547  -0.053382
    11  O    0.017875  -0.011314  -0.174754  -0.085371   0.298403   0.028658
    12  H    0.483710  -0.142671   0.017444  -0.027382   0.009733   0.016835
    13  H    0.383844  -0.012124  -0.021044   0.000378   0.005657   0.014398
    14  H   -0.019354   0.323801   0.017163   0.001636   0.001967   0.008047
    15  H   -0.002891   0.036367   0.355511   0.031373  -0.044873  -0.006125
    16  H   -0.001235  -0.002180   0.020708   0.386455  -0.034856  -0.019277
    17  H    0.000708   0.003017  -0.093915  -0.070117   0.508380  -0.024733
    18  H    0.027538  -0.077387  -0.017395  -0.051032  -0.000339   0.437159
    19  H    0.005987  -0.006405  -0.011267  -0.030826   0.018930  -0.001612
    20  H   -0.014037   0.006680   0.031404   0.013621  -0.032984  -0.013457
    21  H    0.000162  -0.006434  -0.006801  -0.059817   0.039202   0.009668
              7          8          9         10         11         12
     1  C    0.000748   0.041597   0.059816   0.037904   0.017875   0.483710
     2  C    0.040303  -0.025031  -0.205234  -0.046798  -0.011314  -0.142671
     3  C    0.262440   0.237786  -0.007726  -0.049826  -0.174754   0.017444
     4  C   -0.034597   0.093910  -0.120147   0.125767  -0.085371  -0.027382
     5  C   -0.057113  -0.200734   0.043237   0.019547   0.298403   0.009733
     6  C   -0.058090  -0.036037   0.309146  -0.053382   0.028658   0.016835
     7  O    8.346894  -0.068125   0.013805   0.003020   0.008293   0.011485
     8  O   -0.068125   8.549273  -0.009095   0.006398   0.016575  -0.049001
     9  O    0.013805  -0.009095   8.322195  -0.020786  -0.001202   0.009002
    10  O    0.003020   0.006398  -0.020786   8.388589  -0.015715   0.000060
    11  O    0.008293   0.016575  -0.001202  -0.015715   8.313386  -0.000012
    12  H    0.011485  -0.049001   0.009002   0.000060  -0.000012   0.518434
    13  H   -0.002201  -0.040899  -0.002113  -0.000361   0.000052  -0.034944
    14  H   -0.031556   0.006645   0.001603  -0.000559   0.000069   0.002116
    15  H   -0.041115  -0.045660  -0.000107  -0.001058   0.003173  -0.000222
    16  H   -0.001407  -0.000671   0.001853  -0.055237   0.002511  -0.000017
    17  H    0.001933   0.010766  -0.000273   0.008156  -0.063195   0.000003
    18  H    0.008392  -0.001117  -0.056055   0.008054  -0.000071   0.000123
    19  H    0.000071  -0.001274   0.249059   0.033182   0.000014  -0.000556
    20  H   -0.000862   0.023194  -0.001356   0.250376  -0.006391  -0.000561
    21  H   -0.000241   0.000437  -0.000077   0.036487   0.248043   0.000022
             13         14         15         16         17         18
     1  C    0.383844  -0.019354  -0.002891  -0.001235   0.000708   0.027538
     2  C   -0.012124   0.323801   0.036367  -0.002180   0.003017  -0.077387
     3  C   -0.021044   0.017163   0.355511   0.020708  -0.093915  -0.017395
     4  C    0.000378   0.001636   0.031373   0.386455  -0.070117  -0.051032
     5  C    0.005657   0.001967  -0.044873  -0.034856   0.508380  -0.000339
     6  C    0.014398   0.008047  -0.006125  -0.019277  -0.024733   0.437159
     7  O   -0.002201  -0.031556  -0.041115  -0.001407   0.001933   0.008392
     8  O   -0.040899   0.006645  -0.045660  -0.000671   0.010766  -0.001117
     9  O   -0.002113   0.001603  -0.000107   0.001853  -0.000273  -0.056055
    10  O   -0.000361  -0.000559  -0.001058  -0.055237   0.008156   0.008054
    11  O    0.000052   0.000069   0.003173   0.002511  -0.063195  -0.000071
    12  H   -0.034944   0.002116  -0.000222  -0.000017   0.000003   0.000123
    13  H    0.540705  -0.002989   0.000619   0.000003   0.000014  -0.000132
    14  H   -0.002989   0.515575  -0.000029  -0.000116  -0.000006  -0.007109
    15  H    0.000619  -0.000029   0.545370  -0.000147  -0.002699  -0.000028
    16  H    0.000003  -0.000116  -0.000147   0.536954  -0.004808  -0.005440
    17  H    0.000014  -0.000006  -0.002699  -0.004808   0.536103   0.000981
    18  H   -0.000132  -0.007109  -0.000028  -0.005440   0.000981   0.552333
    19  H    0.000038  -0.000210   0.000001  -0.000788  -0.000015   0.005529
    20  H    0.000301  -0.000047  -0.000065   0.005468  -0.000141  -0.000221
    21  H   -0.000001   0.000001  -0.000279  -0.000953   0.005674  -0.000022
             19         20         21
     1  C    0.005987  -0.014037   0.000162
     2  C   -0.006405   0.006680  -0.006434
     3  C   -0.011267   0.031404  -0.006801
     4  C   -0.030826   0.013621  -0.059817
     5  C    0.018930  -0.032984   0.039202
     6  C   -0.001612  -0.013457   0.009668
     7  O    0.000071  -0.000862  -0.000241
     8  O   -0.001274   0.023194   0.000437
     9  O    0.249059  -0.001356  -0.000077
    10  O    0.033182   0.250376   0.036487
    11  O    0.000014  -0.006391   0.248043
    12  H   -0.000556  -0.000561   0.000022
    13  H    0.000038   0.000301  -0.000001
    14  H   -0.000210  -0.000047   0.000001
    15  H    0.000001  -0.000065  -0.000279
    16  H   -0.000788   0.005468  -0.000953
    17  H   -0.000015  -0.000141   0.005674
    18  H    0.005529  -0.000221  -0.000022
    19  H    0.334704  -0.001897  -0.000021
    20  H   -0.001897   0.295414  -0.001590
    21  H   -0.000021  -0.001590   0.334702
 Mulliken atomic charges:
              1
     1  C   -0.097868
     2  C    0.259982
     3  C    0.130355
     4  C    0.146783
     5  C   -0.029587
     6  C   -0.163629
     7  O   -0.402078
     8  O   -0.508937
     9  O   -0.585544
    10  O   -0.673818
    11  O   -0.579029
    12  H    0.186398
    13  H    0.170799
    14  H    0.183353
    15  H    0.172883
    16  H    0.173181
    17  H    0.184166
    18  H    0.176241
    19  H    0.407357
    20  H    0.447151
    21  H    0.401839
 Sum of Mulliken atomic charges =   0.00000
 Mulliken charges with hydrogens summed into heavy atoms:
              1
     1  C    0.259329
     2  C    0.443335
     3  C    0.303238
     4  C    0.319964
     5  C    0.154580
     6  C    0.012612
     7  O   -0.402078
     8  O   -0.508937
     9  O   -0.178187
    10  O   -0.226667
    11  O   -0.177190
 Sum of Mulliken charges with hydrogens summed into heavy atoms =   0.00000
 Electronic spatial extent (au):  <R**2>=           1371.0005
 Charge=              0.0000 electrons
 Dipole moment (field-independent basis, Debye):
    X=             -1.6175    Y=              0.8127    Z=              0.4776  Tot=              1.8721
 Quadrupole moment (field-independent basis, Debye-Ang):
   XX=            -75.5525   YY=            -69.2982   ZZ=            -62.1460
   XY=             -4.5489   XZ=             -2.7963   YZ=              1.3346
 Traceless Quadrupole moment (field-independent basis, Debye-Ang):
   XX=             -6.5536   YY=             -0.2993   ZZ=              6.8529
   XY=             -4.5489   XZ=             -2.7963   YZ=              1.3346
 Octapole moment (field-independent basis, Debye-Ang**2):
  XXX=            -11.4538  YYY=              1.9351  ZZZ=              4.9790  XYY=              5.3043
  XXY=             20.8153  XXZ=              9.4026  XZZ=             -3.0029  YZZ=             -9.6273
  YYZ=              3.1201  XYZ=             -2.5281
 Hexadecapole moment (field-independent basis, Debye-Ang**3):
 XXXX=           -930.4417 YYYY=           -623.6329 ZZZZ=           -304.0403 XXXY=            -30.6363
 XXXZ=             15.1154 YYYX=             -3.7053 YYYZ=             12.4030 ZZZX=             -4.1631
 ZZZY=             -1.6043 XXYY=           -228.2923 XXZZ=           -161.9469 YYZZ=           -165.6741
 XXYZ=            -26.6284 YYXZ=            -15.3418 ZZXY=             -3.3832
 N-N= 7.365530815107D+02 E-N=-2.902159655548D+03  KE= 6.053466681863D+02

 Test job not archived.
 1\1\GINC-COMPUTE-8-8\SP\RB3LYP\6-31+G(d,p)\C6H10O5\ASAROTTI.IQUIR\15-A
 pr-2019\0\\# B3LYP/6-31+G** test scrf=(pcm,solvent=water,smd,dovacuum)
 \\comment\\0,1\C,0,-1.044587,1.201023,1.070538\C,0,-1.297031,0.860818,
 -0.393221\C,0,0.896459,1.210113,-0.207591\C,0,0.254617,-1.194656,-0.39
 1639\C,0,1.378732,-0.176561,-0.669315\C,0,-1.150759,-0.638495,-0.74558
 6\O,0,-0.206992,1.578261,-1.010372\O,0,0.40244,1.14742,1.153755\O,0,-2
 .154868,-1.423123,-0.123508\O,0,0.304118,-1.593931,0.992957\O,0,2.5958
 48,-0.572335,-0.061113\H,0,-1.47385,0.491122,1.781055\H,0,-1.390592,2.
 211112,1.311177\H,0,-2.235684,1.261825,-0.77869\H,0,1.673607,1.974839,
 -0.278505\H,0,0.42485,-2.117814,-0.952251\H,0,1.557169,-0.102963,-1.74
 7746\H,0,-1.285949,-0.720051,-1.830096\H,0,-1.739509,-1.782122,0.68363
 \H,0,0.368567,-0.763679,1.50909\H,0,2.35244,-1.116049,0.709469\\Versio
 n=EM64L-G09RevC.01\State=1-A\HF=-610.8076248\RMSD=6.736e-09\Dipole=-0.
 6363715,0.3197508,0.1878827\Quadrupole=-4.8724379,-0.2225308,5.0949687
 ,-3.3820023,-2.0789659,0.9922127\PG=C01 [X(C6H10O5)]\\@


 IT IS WELL TO REMEMBER THAT MAN IS A PART OF NATURE AND THAT HIS WORKS,
 WHATEVER THEY MAY BE, ARE NO MORE "UNNATURAL" THAN 
 THE FLIGHT OF AN EAGLE OR THE PASSAGE OF A TORNADO.

                                    -- CHARLES MCCARRY IN "THE GREAT SOUTHWEST"
 Job cpu time:  0 days  0 hours  9 minutes 21.3 seconds.
 File lengths (MBytes):  RWF=     55 Int=      0 D2E=      0 Chk=      4 Scr=      1
 Normal termination of Gaussian 09 at Mon Apr 15 18:40:09 2019.
