 Entering Gaussian System, Link 0=g09
 Input=/home/asarotti.iquir/SCF3/06_SSS_Levo04_OPTB_energy_b3lyp_smd.gjc
 Output=/home/asarotti.iquir/SCF3/06_SSS_Levo04_OPTB_energy_b3lyp_smd.log
 Initial command:
 /share/apps/Gaussian09/EM64T.SSE4.2-enabled/g09/l1.exe /tmp/Gau-34601.inp -scrdir=/tmp/
 Entering Link 1 = /share/apps/Gaussian09/EM64T.SSE4.2-enabled/g09/l1.exe PID=     34602.
  
 Copyright (c) 1988,1990,1992,1993,1995,1998,2003,2009,2011,
            Gaussian, Inc.  All Rights Reserved.
  
 This is part of the Gaussian(R) 09 program.  It is based on
 the Gaussian(R) 03 system (copyright 2003, Gaussian, Inc.),
 the Gaussian(R) 98 system (copyright 1998, Gaussian, Inc.),
 the Gaussian(R) 94 system (copyright 1995, Gaussian, Inc.),
 the Gaussian 92(TM) system (copyright 1992, Gaussian, Inc.),
 the Gaussian 90(TM) system (copyright 1990, Gaussian, Inc.),
 the Gaussian 88(TM) system (copyright 1988, Gaussian, Inc.),
 the Gaussian 86(TM) system (copyright 1986, Carnegie Mellon
 University), and the Gaussian 82(TM) system (copyright 1983,
 Carnegie Mellon University). Gaussian is a federally registered
 trademark of Gaussian, Inc.
  
 This software contains proprietary and confidential information,
 including trade secrets, belonging to Gaussian, Inc.
  
 This software is provided under written license and may be
 used, copied, transmitted, or stored only in accord with that
 written license.
  
 The following legend is applicable only to US Government
 contracts under FAR:
  
                    RESTRICTED RIGHTS LEGEND
  
 Use, reproduction and disclosure by the US Government is
 subject to restrictions as set forth in subparagraphs (a)
 and (c) of the Commercial Computer Software - Restricted
 Rights clause in FAR 52.227-19.
  
 Gaussian, Inc.
 340 Quinnipiac St., Bldg. 40, Wallingford CT 06492
  
  
 ---------------------------------------------------------------
 Warning -- This program may not be used in any manner that
 competes with the business of Gaussian, Inc. or will provide
 assistance to any competitor of Gaussian, Inc.  The licensee
 of this program is prohibited from giving any competitor of
 Gaussian, Inc. access to this program.  By using this program,
 the user acknowledges that Gaussian, Inc. is engaged in the
 business of creating and licensing software in the field of
 computational chemistry and represents and warrants to the
 licensee that it is not a competitor of Gaussian, Inc. and that
 it will not use this program in any manner prohibited above.
 ---------------------------------------------------------------
  

 Cite this work as:
 Gaussian 09, Revision C.01,
 M. J. Frisch, G. W. Trucks, H. B. Schlegel, G. E. Scuseria, 
 M. A. Robb, J. R. Cheeseman, G. Scalmani, V. Barone, B. Mennucci, 
 G. A. Petersson, H. Nakatsuji, M. Caricato, X. Li, H. P. Hratchian, 
 A. F. Izmaylov, J. Bloino, G. Zheng, J. L. Sonnenberg, M. Hada, 
 M. Ehara, K. Toyota, R. Fukuda, J. Hasegawa, M. Ishida, T. Nakajima, 
 Y. Honda, O. Kitao, H. Nakai, T. Vreven, J. A. Montgomery, Jr., 
 J. E. Peralta, F. Ogliaro, M. Bearpark, J. J. Heyd, E. Brothers, 
 K. N. Kudin, V. N. Staroverov, T. Keith, R. Kobayashi, J. Normand, 
 K. Raghavachari, A. Rendell, J. C. Burant, S. S. Iyengar, J. Tomasi, 
 M. Cossi, N. Rega, J. M. Millam, M. Klene, J. E. Knox, J. B. Cross, 
 V. Bakken, C. Adamo, J. Jaramillo, R. Gomperts, R. E. Stratmann, 
 O. Yazyev, A. J. Austin, R. Cammi, C. Pomelli, J. W. Ochterski, 
 R. L. Martin, K. Morokuma, V. G. Zakrzewski, G. A. Voth, 
 P. Salvador, J. J. Dannenberg, S. Dapprich, A. D. Daniels, 
 O. Farkas, J. B. Foresman, J. V. Ortiz, J. Cioslowski, 
 and D. J. Fox, Gaussian, Inc., Wallingford CT, 2010.
 
 ******************************************
 Gaussian 09:  EM64L-G09RevC.01 23-Sep-2011
                15-Apr-2019 
 ******************************************
 %nprocshared=4
 Will use up to    4 processors via shared memory.
 -----------------------------------------------------------
 # B3LYP/6-31+G** test scrf=(pcm,solvent=water,smd,dovacuum)
 -----------------------------------------------------------
 1/38=1/1;
 2/12=2,17=6,18=5,40=1/2;
 3/5=1,6=6,7=111,11=2,16=1,25=1,30=1,70=32101,72=1,74=-5/1,2,3;
 4//1;
 5/5=2,38=5,53=1/2;
 6/7=2,8=2,9=2,10=2,28=1/1;
 99/5=1,9=1/99;
 -------
 comment
 -------
 Charge =  0 Multiplicity = 1
 Symbolic Z-Matrix:
 6                    -0.5224    1.34353   1.15465 
 6                    -1.01188   1.15017  -0.28986 
 6                     1.19902   0.96249  -0.32002 
 6                    -0.09587  -1.23631  -0.42983 
 6                     1.26042  -0.53257  -0.68141 
 6                    -1.30902  -0.30173  -0.6894 
 8                     0.13962   1.56834  -1.04373 
 8                     0.90379   1.16433   1.05688 
 8                    -2.43486  -0.75456   0.07093 
 8                    -0.1073   -1.67301   0.92812 
 8                     2.3056   -1.18921   0.01599 
 1                    -0.94301   0.6203    1.85555 
 1                    -0.7292    2.35922   1.50876 
 1                    -1.85182   1.797    -0.54933 
 1                     2.1372    1.46881  -0.56293 
 1                    -0.17131  -2.11466  -1.08871 
 1                     1.50266  -0.59301  -1.74779 
 1                    -1.54117  -0.30049  -1.76017 
 1                    -2.88787  -1.44887  -0.4349 
 1                    -1.05232  -1.71281   1.17103 
 1                     1.96043  -1.31615   0.91812 
 
                          Input orientation:                          
 ---------------------------------------------------------------------
 Center     Atomic      Atomic             Coordinates (Angstroms)
 Number     Number       Type             X           Y           Z
 ---------------------------------------------------------------------
      1          6           0       -0.522404    1.343533    1.154651
      2          6           0       -1.011881    1.150165   -0.289861
      3          6           0        1.199018    0.962493   -0.320017
      4          6           0       -0.095874   -1.236306   -0.429827
      5          6           0        1.260421   -0.532571   -0.681411
      6          6           0       -1.309015   -0.301728   -0.689397
      7          8           0        0.139623    1.568337   -1.043734
      8          8           0        0.903791    1.164333    1.056876
      9          8           0       -2.434858   -0.754562    0.070934
     10          8           0       -0.107299   -1.673008    0.928124
     11          8           0        2.305595   -1.189209    0.015993
     12          1           0       -0.943008    0.620302    1.855549
     13          1           0       -0.729203    2.359217    1.508759
     14          1           0       -1.851816    1.797004   -0.549334
     15          1           0        2.137204    1.468813   -0.562927
     16          1           0       -0.171311   -2.114656   -1.088708
     17          1           0        1.502663   -0.593006   -1.747787
     18          1           0       -1.541174   -0.300487   -1.760171
     19          1           0       -2.887869   -1.448872   -0.434895
     20          1           0       -1.052321   -1.712813    1.171031
     21          1           0        1.960433   -1.316149    0.918118
 ---------------------------------------------------------------------
                    Distance matrix (angstroms):
                    1          2          3          4          5
     1  C    0.000000
     2  C    1.537398   0.000000
     3  C    2.298506   2.219055   0.000000
     4  C    3.057461   2.560059   2.554118   0.000000
     5  C    3.173225   2.854517   1.539348   1.548571   0.000000
     6  C    2.593483   1.534898   2.832830   1.553230   2.579797
     7  O    2.306884   1.438455   1.418848   2.880688   2.408585
     8  O    1.440731   2.341730   1.422580   2.995444   2.455262
     9  O    3.038737   2.404791   4.038091   2.440017   3.777617
    10  O    3.053383   3.205006   3.195338   1.426489   2.400387
    11  O    3.963446   4.070855   2.442793   2.442955   1.417722
    12  H    1.091434   2.210946   3.072207   3.063915   3.552518
    13  H    1.095341   2.185577   3.002215   4.133643   4.137377
    14  H    2.208288   1.091429   3.171212   3.506934   3.889779
    15  H    3.168483   3.176923   1.093416   3.510274   2.188224
    16  H    4.137028   3.464646   3.455074   1.100597   2.172266
    17  H    4.034257   3.389266   2.133144   2.169372   1.095213
    18  H    3.498125   2.132218   3.343324   2.175882   3.011066
    19  H    3.989938   3.208638   4.746633   2.800080   4.255430
    20  H    3.101988   3.214418   3.801186   1.924733   3.189559
    21  H    3.646140   4.046797   2.702765   2.460026   1.913767
                    6          7          8          9         10
     6  C    0.000000
     7  O    2.391913   0.000000
     8  O    3.177312   2.271505   0.000000
     9  O    1.432021   3.642293   3.975024   0.000000
    10  O    2.437397   3.802040   3.014861   2.644967   0.000000
    11  O    3.788219   3.663129   2.930470   4.760654   2.624519
    12  H    2.731456   3.236773   2.084350   2.701984   2.611091
    13  H    3.499814   2.809906   2.073310   3.830433   4.121012
    14  H    2.172309   2.064594   3.251700   2.689825   4.155383
    15  H    3.876498   2.057039   2.058586   5.123371   4.139090
    16  H    2.177275   3.696368   4.063391   2.884141   2.065614
    17  H    3.018371   2.650466   3.363484   4.340267   3.304373
    18  H    1.095653   2.613592   4.007406   2.087535   3.341667
    19  H    1.968119   4.317400   4.840548   0.971158   3.104775
    20  H    2.349095   4.134230   3.481002   2.009942   0.976553
    21  H    3.781857   3.935031   2.699729   4.511284   2.098324
                   11         12         13         14         15
    11  O    0.000000
    12  H    4.148701   0.000000
    13  H    4.902007   1.786001   0.000000
    14  H    5.149867   2.827370   2.410828   0.000000
    15  H    2.725543   4.007082   3.647052   4.002521   0.000000
    16  H    2.865638   4.091963   5.203231   4.291399   4.294990
    17  H    2.027579   4.520780   4.929700   4.289635   2.461226
    18  H    4.329228   3.778768   4.291763   2.441740   4.253737
    19  H    5.219463   3.648301   4.789486   3.409137   5.812111
    20  H    3.589411   2.433915   4.098767   3.989695   4.827258
    21  H    0.974207   3.613667   4.592528   5.135989   3.159233
                   16         17         18         19         20
    16  H    0.000000
    17  H    2.356267   0.000000
    18  H    2.370358   3.057886   0.000000
    19  H    2.872356   4.661863   2.211048   0.000000
    20  H    2.458470   4.037500   3.290226   2.453141   0.000000
    21  H    3.034682   2.799918   4.523942   5.035305   3.049261
                   21
    21  H    0.000000
 Stoichiometry    C6H10O5
 Framework group  C1[X(C6H10O5)]
 Deg. of freedom    57
 Full point group                 C1      NOp   1
 Largest Abelian subgroup         C1      NOp   1
 Largest concise Abelian subgroup C1      NOp   1
                         Standard orientation:                         
 ---------------------------------------------------------------------
 Center     Atomic      Atomic             Coordinates (Angstroms)
 Number     Number       Type             X           Y           Z
 ---------------------------------------------------------------------
      1          6           0       -0.522404    1.343533    1.154651
      2          6           0       -1.011881    1.150165   -0.289861
      3          6           0        1.199018    0.962493   -0.320017
      4          6           0       -0.095875   -1.236306   -0.429827
      5          6           0        1.260421   -0.532571   -0.681411
      6          6           0       -1.309015   -0.301727   -0.689397
      7          8           0        0.139624    1.568337   -1.043734
      8          8           0        0.903791    1.164333    1.056876
      9          8           0       -2.434858   -0.754561    0.070934
     10          8           0       -0.107300   -1.673008    0.928124
     11          8           0        2.305595   -1.189210    0.015993
     12          1           0       -0.943008    0.620302    1.855549
     13          1           0       -0.729202    2.359217    1.508759
     14          1           0       -1.851815    1.797005   -0.549334
     15          1           0        2.137205    1.468812   -0.562927
     16          1           0       -0.171312   -2.114656   -1.088708
     17          1           0        1.502663   -0.593007   -1.747787
     18          1           0       -1.541174   -0.300486   -1.760171
     19          1           0       -2.887870   -1.448871   -0.434895
     20          1           0       -1.052322   -1.712813    1.171031
     21          1           0        1.960432   -1.316150    0.918118
 ---------------------------------------------------------------------
 Rotational constants (GHZ):      1.5348653      1.2943811      0.9611614
 Standard basis: 6-31+G(d,p) (6D, 7F)
 There are   259 symmetry adapted basis functions of A   symmetry.
 Integral buffers will be    131072 words long.
 Raffenetti 2 integral format.
 Two-electron integral symmetry is turned on.
   259 basis functions,   422 primitive gaussians,   259 cartesian basis functions
    43 alpha electrons       43 beta electrons
       nuclear repulsion energy       734.2903772397 Hartrees.
 NAtoms=   21 NActive=   21 NUniq=   21 SFac= 1.00D+00 NAtFMM=   60 NAOKFM=F Big=F
 ------------------------------------------------------------------------------
 Polarizable Continuum Model (PCM)
 =================================
 Model                : C-PCM.
 Atomic radii         : SMD-Coulomb.
 Polarization charges : Total charges.
 Charge compensation  : None.
 Solution method      : Matrix inversion.
 Cavity type          : VdW (van der Waals Surface) (Alpha=1.000).
 Cavity algorithm     : GePol (No added spheres)
                        Default sphere list used, NSphG=   21.
                        Lebedev-Laikov grids with approx.  5.0 points / Ang**2.
                        Smoothing algorithm: Karplus/York (Gamma=1.0000).
                        Polarization charges: spherical gaussians, with
                                              point-specific exponents (IZeta= 3).
                        Self-potential: point-specific (ISelfS= 7).
                        Self-field    : sphere-specific E.n sum rule (ISelfD= 2).
 Solvent              : Water, Eps=  78.355300 Eps(inf)=   1.777849
 ------------------------------------------------------------------------------
 ------------------------------------------------------------------------------
 Atomic radii for non-electrostatic terms: SMD-CDS.
 ------------------------------------------------------------------------------
 Nuclear repulsion after PCM non-electrostatic terms =      734.2951824387 Hartrees.
 One-electron integrals computed using PRISM.
 NBasis=   259 RedAO= T  NBF=   259
 NBsUse=   259 1.00D-06 NBFU=   259
 Harris functional with IExCor=  402 diagonalized for initial guess.
 ExpMin= 4.38D-02 ExpMax= 5.48D+03 ExpMxC= 8.25D+02 IAcc=2 IRadAn=         4 AccDes= 0.00D+00
 HarFok:  IExCor=  402 AccDes= 0.00D+00 IRadAn=         4 IDoV= 1
 ScaDFX=  1.000000  1.000000  1.000000  1.000000
 FoFCou: FMM=F IPFlag=           0 FMFlag=      100000 FMFlg1=           0
         NFxFlg=           0 DoJE=T BraDBF=F KetDBF=T FulRan=T
         Omega=  0.000000  0.000000  1.000000  0.000000  0.000000 ICntrl=     500 IOpCl=  0
         NMat0=    1 NMatS0=    1 NMatT0=    0 NMatD0=    1 NMtDS0=    0 NMtDT0=    0
         I1Cent=           4 NGrid=           0.
 Petite list used in FoFCou.
 Initial guess orbital symmetries:
       Occupied  (A) (A) (A) (A) (A) (A) (A) (A) (A) (A) (A) (A)
                 (A) (A) (A) (A) (A) (A) (A) (A) (A) (A) (A) (A)
                 (A) (A) (A) (A) (A) (A) (A) (A) (A) (A) (A) (A)
                 (A) (A) (A) (A) (A) (A) (A)
       Virtual   (A) (A) (A) (A) (A) (A) (A) (A) (A) (A) (A) (A)
                 (A) (A) (A) (A) (A) (A) (A) (A) (A) (A) (A) (A)
                 (A) (A) (A) (A) (A) (A) (A) (A) (A) (A) (A) (A)
                 (A) (A) (A) (A) (A) (A) (A) (A) (A) (A) (A) (A)
                 (A) (A) (A) (A) (A) (A) (A) (A) (A) (A) (A) (A)
                 (A) (A) (A) (A) (A) (A) (A) (A) (A) (A) (A) (A)
                 (A) (A) (A) (A) (A) (A) (A) (A) (A) (A) (A) (A)
                 (A) (A) (A) (A) (A) (A) (A) (A) (A) (A) (A) (A)
                 (A) (A) (A) (A) (A) (A) (A) (A) (A) (A) (A) (A)
                 (A) (A) (A) (A) (A) (A) (A) (A) (A) (A) (A) (A)
                 (A) (A) (A) (A) (A) (A) (A) (A) (A) (A) (A) (A)
                 (A) (A) (A) (A) (A) (A) (A) (A) (A) (A) (A) (A)
                 (A) (A) (A) (A) (A) (A) (A) (A) (A) (A) (A) (A)
                 (A) (A) (A) (A) (A) (A) (A) (A) (A) (A) (A) (A)
                 (A) (A) (A) (A) (A) (A) (A) (A) (A) (A) (A) (A)
                 (A) (A) (A) (A) (A) (A) (A) (A) (A) (A) (A) (A)
                 (A) (A) (A) (A) (A) (A) (A) (A) (A) (A) (A) (A)
                 (A) (A) (A) (A) (A) (A) (A) (A) (A) (A) (A) (A)
 The electronic state of the initial guess is 1-A.
 Requested convergence on RMS density matrix=1.00D-08 within 128 cycles.
 Requested convergence on MAX density matrix=1.00D-06.
 Requested convergence on             energy=1.00D-06.
 No special actions if energy rises.
 Error on total polarization charges =  0.05678
 SCF Done:  E(RB3LYP) =  -610.807252587     A.U. after   12 cycles
             Convg  =    0.6007D-08             -V/T =  2.0090
 SMD-CDS (non-electrostatic) energy       (kcal/mol) =       3.02
 (included in total energy above)

 **********************************************************************

            Population analysis using the SCF density.

 **********************************************************************

 Orbital symmetries:
       Occupied  (A) (A) (A) (A) (A) (A) (A) (A) (A) (A) (A) (A)
                 (A) (A) (A) (A) (A) (A) (A) (A) (A) (A) (A) (A)
                 (A) (A) (A) (A) (A) (A) (A) (A) (A) (A) (A) (A)
                 (A) (A) (A) (A) (A) (A) (A)
       Virtual   (A) (A) (A) (A) (A) (A) (A) (A) (A) (A) (A) (A)
                 (A) (A) (A) (A) (A) (A) (A) (A) (A) (A) (A) (A)
                 (A) (A) (A) (A) (A) (A) (A) (A) (A) (A) (A) (A)
                 (A) (A) (A) (A) (A) (A) (A) (A) (A) (A) (A) (A)
                 (A) (A) (A) (A) (A) (A) (A) (A) (A) (A) (A) (A)
                 (A) (A) (A) (A) (A) (A) (A) (A) (A) (A) (A) (A)
                 (A) (A) (A) (A) (A) (A) (A) (A) (A) (A) (A) (A)
                 (A) (A) (A) (A) (A) (A) (A) (A) (A) (A) (A) (A)
                 (A) (A) (A) (A) (A) (A) (A) (A) (A) (A) (A) (A)
                 (A) (A) (A) (A) (A) (A) (A) (A) (A) (A) (A) (A)
                 (A) (A) (A) (A) (A) (A) (A) (A) (A) (A) (A) (A)
                 (A) (A) (A) (A) (A) (A) (A) (A) (A) (A) (A) (A)
                 (A) (A) (A) (A) (A) (A) (A) (A) (A) (A) (A) (A)
                 (A) (A) (A) (A) (A) (A) (A) (A) (A) (A) (A) (A)
                 (A) (A) (A) (A) (A) (A) (A) (A) (A) (A) (A) (A)
                 (A) (A) (A) (A) (A) (A) (A) (A) (A) (A) (A) (A)
                 (A) (A) (A) (A) (A) (A) (A) (A) (A) (A) (A) (A)
                 (A) (A) (A) (A) (A) (A) (A) (A) (A) (A) (A) (A)
 The electronic state is 1-A.
 Alpha  occ. eigenvalues --  -19.18453 -19.17870 -19.17411 -19.16984 -19.16464
 Alpha  occ. eigenvalues --  -10.29083 -10.25083 -10.25029 -10.24611 -10.24502
 Alpha  occ. eigenvalues --  -10.23743  -1.11110  -1.05781  -1.04219  -1.01792
 Alpha  occ. eigenvalues --   -1.01207  -0.79207  -0.77711  -0.68068  -0.65929
 Alpha  occ. eigenvalues --   -0.61850  -0.58883  -0.55161  -0.53582  -0.52916
 Alpha  occ. eigenvalues --   -0.49878  -0.48505  -0.46950  -0.45491  -0.44317
 Alpha  occ. eigenvalues --   -0.42570  -0.41696  -0.41237  -0.38162  -0.36897
 Alpha  occ. eigenvalues --   -0.36279  -0.35275  -0.34578  -0.32389  -0.30263
 Alpha  occ. eigenvalues --   -0.29526  -0.28155  -0.25615
 Alpha virt. eigenvalues --    0.00108   0.01817   0.02221   0.02612   0.04655
 Alpha virt. eigenvalues --    0.04857   0.05038   0.05244   0.06161   0.08434
 Alpha virt. eigenvalues --    0.09101   0.09552   0.10732   0.10915   0.12005
 Alpha virt. eigenvalues --    0.12303   0.12457   0.13351   0.14119   0.14775
 Alpha virt. eigenvalues --    0.15512   0.15947   0.16789   0.17087   0.17679
 Alpha virt. eigenvalues --    0.17899   0.18436   0.19444   0.20061   0.20992
 Alpha virt. eigenvalues --    0.21052   0.21825   0.22473   0.22809   0.23467
 Alpha virt. eigenvalues --    0.24266   0.24792   0.25568   0.25815   0.26608
 Alpha virt. eigenvalues --    0.27171   0.28064   0.29234   0.30003   0.30341
 Alpha virt. eigenvalues --    0.31011   0.31615   0.32050   0.33218   0.33440
 Alpha virt. eigenvalues --    0.33867   0.34894   0.35817   0.36115   0.36892
 Alpha virt. eigenvalues --    0.37476   0.37627   0.38716   0.39316   0.39983
 Alpha virt. eigenvalues --    0.40879   0.42007   0.42959   0.44894   0.47075
 Alpha virt. eigenvalues --    0.47203   0.64409   0.65950   0.66874   0.69119
 Alpha virt. eigenvalues --    0.69637   0.71194   0.73340   0.74319   0.75526
 Alpha virt. eigenvalues --    0.79352   0.80954   0.81456   0.82212   0.84019
 Alpha virt. eigenvalues --    0.86907   0.91350   0.95695   0.96274   0.98878
 Alpha virt. eigenvalues --    1.00549   1.02996   1.03310   1.05695   1.06294
 Alpha virt. eigenvalues --    1.08436   1.09334   1.09745   1.11775   1.13138
 Alpha virt. eigenvalues --    1.15908   1.18693   1.22134   1.24533   1.26457
 Alpha virt. eigenvalues --    1.27413   1.29031   1.30157   1.31529   1.32529
 Alpha virt. eigenvalues --    1.34155   1.34869   1.36398   1.37106   1.40614
 Alpha virt. eigenvalues --    1.41237   1.44563   1.45988   1.48677   1.50579
 Alpha virt. eigenvalues --    1.51990   1.54454   1.56556   1.58311   1.59960
 Alpha virt. eigenvalues --    1.62292   1.63982   1.64891   1.67481   1.68648
 Alpha virt. eigenvalues --    1.69772   1.72002   1.73031   1.75745   1.76791
 Alpha virt. eigenvalues --    1.78486   1.84254   1.84676   1.87570   1.90500
 Alpha virt. eigenvalues --    1.90751   1.92546   1.94733   1.97537   1.99055
 Alpha virt. eigenvalues --    1.99717   2.02643   2.03757   2.06902   2.07773
 Alpha virt. eigenvalues --    2.09047   2.12267   2.12673   2.16171   2.17547
 Alpha virt. eigenvalues --    2.19034   2.20677   2.22460   2.26301   2.29694
 Alpha virt. eigenvalues --    2.31186   2.35377   2.36765   2.40493   2.41290
 Alpha virt. eigenvalues --    2.45444   2.46390   2.48869   2.50130   2.51270
 Alpha virt. eigenvalues --    2.53762   2.55830   2.58167   2.59778   2.62776
 Alpha virt. eigenvalues --    2.64175   2.65191   2.68425   2.69147   2.71380
 Alpha virt. eigenvalues --    2.73194   2.73796   2.76279   2.79738   2.80391
 Alpha virt. eigenvalues --    2.81980   2.85375   2.85917   2.86713   2.89532
 Alpha virt. eigenvalues --    2.91040   2.94191   2.98747   3.01678   3.03509
 Alpha virt. eigenvalues --    3.04294   3.07050   3.09565   3.11870   3.14328
 Alpha virt. eigenvalues --    3.34474   3.42219   3.43475   3.45735   3.46626
 Alpha virt. eigenvalues --    3.49856   3.52005   3.52701   3.58252   3.59163
 Alpha virt. eigenvalues --    4.25738   4.34361   4.38938   4.43855   4.47496
 Alpha virt. eigenvalues --    4.53069   4.60826   4.80028   4.88407   4.90744
 Alpha virt. eigenvalues --    4.95042
          Condensed to atoms (all electrons):
              1          2          3          4          5          6
     1  C    5.576437  -0.391345  -0.510581  -0.328453   0.425859   0.195008
     2  C   -0.391345   7.410712  -0.432283   0.559157  -0.254555  -0.959067
     3  C   -0.510581  -0.432283   7.058943   0.367093  -1.482607   0.291921
     4  C   -0.328453   0.559157   0.367093   6.588354  -0.924581  -0.684427
     5  C    0.425859  -0.254555  -1.482607  -0.924581   7.728128   0.009003
     6  C    0.195008  -0.959067   0.291921  -0.684427   0.009003   6.753997
     7  O   -0.030500   0.067123   0.270020  -0.017594  -0.084807  -0.063842
     8  O    0.160713  -0.112455   0.290334   0.070085  -0.162371  -0.046003
     9  O    0.070219  -0.206063  -0.033621  -0.165481   0.083052   0.273461
    10  O    0.031881  -0.032987   0.029632   0.146860  -0.172846   0.042173
    11  O    0.017221  -0.025353  -0.163683  -0.135936   0.342110   0.041847
    12  H    0.490197  -0.194472   0.022249  -0.034314   0.015241   0.047093
    13  H    0.407117  -0.013167  -0.029822  -0.006822   0.010738   0.014341
    14  H   -0.014252   0.313885   0.016045   0.008706  -0.000659   0.004407
    15  H    0.008053   0.033509   0.347344   0.021218  -0.030099  -0.010144
    16  H   -0.004678  -0.001960   0.015689   0.318692  -0.039505   0.037950
    17  H    0.005161   0.006717  -0.081640  -0.037888   0.463102  -0.027268
    18  H    0.003538  -0.017586  -0.003402   0.026297  -0.010445   0.315247
    19  H   -0.005213   0.032520  -0.000266  -0.036335   0.001829   0.013937
    20  H   -0.001778   0.007837  -0.015788   0.022603   0.028693  -0.064725
    21  H    0.002310  -0.001989  -0.017906  -0.037966   0.040745  -0.004920
              7          8          9         10         11         12
     1  C   -0.030500   0.160713   0.070219   0.031881   0.017221   0.490197
     2  C    0.067123  -0.112455  -0.206063  -0.032987  -0.025353  -0.194472
     3  C    0.270020   0.290334  -0.033621   0.029632  -0.163683   0.022249
     4  C   -0.017594   0.070085  -0.165481   0.146860  -0.135936  -0.034314
     5  C   -0.084807  -0.162371   0.083052  -0.172846   0.342110   0.015241
     6  C   -0.063842  -0.046003   0.273461   0.042173   0.041847   0.047093
     7  O    8.320245  -0.042925   0.013453   0.006026   0.006075   0.012322
     8  O   -0.042925   8.411128  -0.003912  -0.007826   0.013561  -0.042570
     9  O    0.013453  -0.003912   8.400970  -0.033942  -0.000798   0.008773
    10  O    0.006026  -0.007826  -0.033942   8.461873  -0.008014   0.000531
    11  O    0.006075   0.013561  -0.000798  -0.008014   8.290182  -0.000041
    12  H    0.012322  -0.042570   0.008773   0.000531  -0.000041   0.536350
    13  H   -0.001086  -0.052300  -0.002466   0.000548   0.000002  -0.039355
    14  H   -0.029047   0.006448   0.005013  -0.001121   0.000072   0.002986
    15  H   -0.039564  -0.051270  -0.000069  -0.000779   0.003405  -0.000271
    16  H   -0.000989  -0.000931  -0.006966  -0.047304   0.002476  -0.000012
    17  H    0.003979   0.008161  -0.000204   0.005293  -0.061505  -0.000014
    18  H    0.001401  -0.001425  -0.031731   0.003557  -0.000215   0.000147
    19  H   -0.000657  -0.000020   0.250099   0.002553  -0.000023   0.000045
    20  H   -0.000109  -0.000800   0.036815   0.241104   0.001647  -0.000373
    21  H   -0.000161   0.007538  -0.000205   0.016132   0.248922  -0.000057
             13         14         15         16         17         18
     1  C    0.407117  -0.014252   0.008053  -0.004678   0.005161   0.003538
     2  C   -0.013167   0.313885   0.033509  -0.001960   0.006717  -0.017586
     3  C   -0.029822   0.016045   0.347344   0.015689  -0.081640  -0.003402
     4  C   -0.006822   0.008706   0.021218   0.318692  -0.037888   0.026297
     5  C    0.010738  -0.000659  -0.030099  -0.039505   0.463102  -0.010445
     6  C    0.014341   0.004407  -0.010144   0.037950  -0.027268   0.315247
     7  O   -0.001086  -0.029047  -0.039564  -0.000989   0.003979   0.001401
     8  O   -0.052300   0.006448  -0.051270  -0.000931   0.008161  -0.001425
     9  O   -0.002466   0.005013  -0.000069  -0.006966  -0.000204  -0.031731
    10  O    0.000548  -0.001121  -0.000779  -0.047304   0.005293   0.003557
    11  O    0.000002   0.000072   0.003405   0.002476  -0.061505  -0.000215
    12  H   -0.039355   0.002986  -0.000271  -0.000012  -0.000014   0.000147
    13  H    0.554083  -0.004561   0.000254   0.000005   0.000014  -0.000124
    14  H   -0.004561   0.517641  -0.000045  -0.000138  -0.000016  -0.006915
    15  H    0.000254  -0.000045   0.554040  -0.000156  -0.003582  -0.000046
    16  H    0.000005  -0.000138  -0.000156   0.587187  -0.005371  -0.004551
    17  H    0.000014  -0.000016  -0.003582  -0.005371   0.539398   0.000719
    18  H   -0.000124  -0.006915  -0.000046  -0.004551   0.000719   0.550972
    19  H   -0.000001  -0.000239  -0.000001   0.001932  -0.000002  -0.008168
    20  H    0.000017  -0.000018   0.000011  -0.001107  -0.000124   0.000968
    21  H    0.000010   0.000000  -0.000330  -0.000163   0.006349  -0.000011
             19         20         21
     1  C   -0.005213  -0.001778   0.002310
     2  C    0.032520   0.007837  -0.001989
     3  C   -0.000266  -0.015788  -0.017906
     4  C   -0.036335   0.022603  -0.037966
     5  C    0.001829   0.028693   0.040745
     6  C    0.013937  -0.064725  -0.004920
     7  O   -0.000657  -0.000109  -0.000161
     8  O   -0.000020  -0.000800   0.007538
     9  O    0.250099   0.036815  -0.000205
    10  O    0.002553   0.241104   0.016132
    11  O   -0.000023   0.001647   0.248922
    12  H    0.000045  -0.000373  -0.000057
    13  H   -0.000001   0.000017   0.000010
    14  H   -0.000239  -0.000018   0.000000
    15  H   -0.000001   0.000011  -0.000330
    16  H    0.001932  -0.001107  -0.000163
    17  H   -0.000002  -0.000124   0.006349
    18  H   -0.008168   0.000968  -0.000011
    19  H    0.319002  -0.002434   0.000002
    20  H   -0.002434   0.320209  -0.000024
    21  H    0.000002  -0.000024   0.337117
 Mulliken atomic charges:
              1
     1  C   -0.106914
     2  C    0.211823
     3  C    0.062328
     4  C    0.280731
     5  C    0.013974
     6  C   -0.179989
     7  O   -0.389365
     8  O   -0.443160
     9  O   -0.656396
    10  O   -0.683344
    11  O   -0.571953
    12  H    0.175545
    13  H    0.162575
    14  H    0.181806
    15  H    0.168520
    16  H    0.149901
    17  H    0.178721
    18  H    0.181775
    19  H    0.431438
    20  H    0.427376
    21  H    0.404608
 Sum of Mulliken atomic charges =   0.00000
 Mulliken charges with hydrogens summed into heavy atoms:
              1
     1  C    0.231206
     2  C    0.393629
     3  C    0.230848
     4  C    0.430632
     5  C    0.192695
     6  C    0.001787
     7  O   -0.389365
     8  O   -0.443160
     9  O   -0.224958
    10  O   -0.255968
    11  O   -0.167346
 Sum of Mulliken charges with hydrogens summed into heavy atoms =   0.00000
 Electronic spatial extent (au):  <R**2>=           1375.6927
 Charge=              0.0000 electrons
 Dipole moment (field-independent basis, Debye):
    X=             -5.9624    Y=             -1.0006    Z=             -2.4997  Tot=              6.5422
 Quadrupole moment (field-independent basis, Debye-Ang):
   XX=            -66.0257   YY=            -66.2641   ZZ=            -63.5741
   XY=              7.0161   XZ=              1.0424   YZ=              4.2043
 Traceless Quadrupole moment (field-independent basis, Debye-Ang):
   XX=             -0.7377   YY=             -0.9761   ZZ=              1.7138
   XY=              7.0161   XZ=              1.0424   YZ=              4.2043
 Octapole moment (field-independent basis, Debye-Ang**2):
  XXX=            -33.8873  YYY=             -4.7305  ZZZ=              2.0217  XYY=            -26.0290
  XXY=             -1.7638  XXZ=            -11.5242  XZZ=             -6.1160  YZZ=            -10.7442
  YYZ=              1.8358  XYZ=             -9.3708
 Hexadecapole moment (field-independent basis, Debye-Ang**3):
 XXXX=           -798.4236 YYYY=           -641.9104 ZZZZ=           -307.3960 XXXY=             87.9499
 XXXZ=             37.4563 YYYX=             29.4757 YYYZ=             15.7728 ZZZX=             -3.6242
 ZZZY=              1.3811 XXYY=           -200.8616 XXZZ=           -160.7253 YYZZ=           -159.1884
 XXYZ=             -8.9503 YYXZ=              2.7554 ZZXY=             -3.4536
 N-N= 7.342951824387D+02 E-N=-2.898743525515D+03  KE= 6.053560690257D+02

 Test job not archived.
 1\1\GINC-COMPUTE-8-8\SP\RB3LYP\6-31+G(d,p)\C6H10O5\ASAROTTI.IQUIR\15-A
 pr-2019\0\\# B3LYP/6-31+G** test scrf=(pcm,solvent=water,smd,dovacuum)
 \\comment\\0,1\C,0,-0.522404,1.343533,1.154651\C,0,-1.011881,1.150165,
 -0.289861\C,0,1.199018,0.962493,-0.320017\C,0,-0.095874,-1.236306,-0.4
 29827\C,0,1.260421,-0.532571,-0.681411\C,0,-1.309015,-0.301728,-0.6893
 97\O,0,0.139623,1.568337,-1.043734\O,0,0.903791,1.164333,1.056876\O,0,
 -2.434858,-0.754562,0.070934\O,0,-0.107299,-1.673008,0.928124\O,0,2.30
 5595,-1.189209,0.015993\H,0,-0.943008,0.620302,1.855549\H,0,-0.729203,
 2.359217,1.508759\H,0,-1.851816,1.797004,-0.549334\H,0,2.137204,1.4688
 13,-0.562927\H,0,-0.171311,-2.114656,-1.088708\H,0,1.502663,-0.593006,
 -1.747787\H,0,-1.541174,-0.300487,-1.760171\H,0,-2.887869,-1.448872,-0
 .434895\H,0,-1.052321,-1.712813,1.171031\H,0,1.960433,-1.316149,0.9181
 18\\Version=EM64L-G09RevC.01\State=1-A\HF=-610.8072526\RMSD=6.007e-09\
 Dipole=-2.34578,-0.3936654,-0.9834687\Quadrupole=-0.5484805,-0.7257184
 ,1.2741989,5.2162917,0.7749644,3.1257812\PG=C01 [X(C6H10O5)]\\@


 BRING ME INTO THE COMPANY OF THOSE WHO SEEK TRUTH,
 AND DELIVER ME FROM THOSE WHO HAVE FOUND IT.
 Job cpu time:  0 days  0 hours  9 minutes 38.5 seconds.
 File lengths (MBytes):  RWF=     56 Int=      0 D2E=      0 Chk=      4 Scr=      1
 Normal termination of Gaussian 09 at Mon Apr 15 18:50:50 2019.
