 Entering Gaussian System, Link 0=g09
 Input=/home/mmarcarino.iquir/NMR/07_SRS_Levo02_OPTB_nmr.gjc
 Output=/home/mmarcarino.iquir/NMR/07_SRS_Levo02_OPTB_nmr.log
 Initial command:
 /share/apps/Gaussian09/EM64T.SSE4.2-enabled/g09/l1.exe /tmp/Gau-5401.inp -scrdir=/tmp/
 Entering Link 1 = /share/apps/Gaussian09/EM64T.SSE4.2-enabled/g09/l1.exe PID=      5402.
  
 Copyright (c) 1988,1990,1992,1993,1995,1998,2003,2009,2011,
            Gaussian, Inc.  All Rights Reserved.
  
 This is part of the Gaussian(R) 09 program.  It is based on
 the Gaussian(R) 03 system (copyright 2003, Gaussian, Inc.),
 the Gaussian(R) 98 system (copyright 1998, Gaussian, Inc.),
 the Gaussian(R) 94 system (copyright 1995, Gaussian, Inc.),
 the Gaussian 92(TM) system (copyright 1992, Gaussian, Inc.),
 the Gaussian 90(TM) system (copyright 1990, Gaussian, Inc.),
 the Gaussian 88(TM) system (copyright 1988, Gaussian, Inc.),
 the Gaussian 86(TM) system (copyright 1986, Carnegie Mellon
 University), and the Gaussian 82(TM) system (copyright 1983,
 Carnegie Mellon University). Gaussian is a federally registered
 trademark of Gaussian, Inc.
  
 This software contains proprietary and confidential information,
 including trade secrets, belonging to Gaussian, Inc.
  
 This software is provided under written license and may be
 used, copied, transmitted, or stored only in accord with that
 written license.
  
 The following legend is applicable only to US Government
 contracts under FAR:
  
                    RESTRICTED RIGHTS LEGEND
  
 Use, reproduction and disclosure by the US Government is
 subject to restrictions as set forth in subparagraphs (a)
 and (c) of the Commercial Computer Software - Restricted
 Rights clause in FAR 52.227-19.
  
 Gaussian, Inc.
 340 Quinnipiac St., Bldg. 40, Wallingford CT 06492
  
  
 ---------------------------------------------------------------
 Warning -- This program may not be used in any manner that
 competes with the business of Gaussian, Inc. or will provide
 assistance to any competitor of Gaussian, Inc.  The licensee
 of this program is prohibited from giving any competitor of
 Gaussian, Inc. access to this program.  By using this program,
 the user acknowledges that Gaussian, Inc. is engaged in the
 business of creating and licensing software in the field of
 computational chemistry and represents and warrants to the
 licensee that it is not a competitor of Gaussian, Inc. and that
 it will not use this program in any manner prohibited above.
 ---------------------------------------------------------------
  

 Cite this work as:
 Gaussian 09, Revision C.01,
 M. J. Frisch, G. W. Trucks, H. B. Schlegel, G. E. Scuseria, 
 M. A. Robb, J. R. Cheeseman, G. Scalmani, V. Barone, B. Mennucci, 
 G. A. Petersson, H. Nakatsuji, M. Caricato, X. Li, H. P. Hratchian, 
 A. F. Izmaylov, J. Bloino, G. Zheng, J. L. Sonnenberg, M. Hada, 
 M. Ehara, K. Toyota, R. Fukuda, J. Hasegawa, M. Ishida, T. Nakajima, 
 Y. Honda, O. Kitao, H. Nakai, T. Vreven, J. A. Montgomery, Jr., 
 J. E. Peralta, F. Ogliaro, M. Bearpark, J. J. Heyd, E. Brothers, 
 K. N. Kudin, V. N. Staroverov, T. Keith, R. Kobayashi, J. Normand, 
 K. Raghavachari, A. Rendell, J. C. Burant, S. S. Iyengar, J. Tomasi, 
 M. Cossi, N. Rega, J. M. Millam, M. Klene, J. E. Knox, J. B. Cross, 
 V. Bakken, C. Adamo, J. Jaramillo, R. Gomperts, R. E. Stratmann, 
 O. Yazyev, A. J. Austin, R. Cammi, C. Pomelli, J. W. Ochterski, 
 R. L. Martin, K. Morokuma, V. G. Zakrzewski, G. A. Voth, 
 P. Salvador, J. J. Dannenberg, S. Dapprich, A. D. Daniels, 
 O. Farkas, J. B. Foresman, J. V. Ortiz, J. Cioslowski, 
 and D. J. Fox, Gaussian, Inc., Wallingford CT, 2010.
 
 ******************************************
 Gaussian 09:  EM64L-G09RevC.01 23-Sep-2011
                12-Apr-2019 
 ******************************************
 %nprocshared=4
 Will use up to    4 processors via shared memory.
 ------------------------------------------------
 # mpw1pw91/6-31+g** nmr scrf=(pcm,solvent=water)
 ------------------------------------------------
 1/38=1/1;
 2/12=2,17=6,18=5,40=1/2;
 3/5=1,6=6,7=111,11=2,16=1,25=1,30=1,70=2201,72=1,74=-7/1,2,8,3;
 4//1;
 5/5=2,38=5,53=1/2;
 8/6=1,10=90,11=11/1;
 10/13=100,45=16/2;
 6/7=2,8=2,9=2,10=2,28=1/1;
 99/9=1/99;
 -------
 comment
 -------
 Charge =  0 Multiplicity = 1
 Symbolic Z-Matrix:
 6                    -1.80468  -0.24965  -0.90745 
 6                    -1.49092   0.41104   0.43967 
 6                    -0.35858  -1.49893   0.38212 
 6                     0.95037   0.54919  -0.17965 
 6                     1.04257  -0.87081   0.38207 
 6                    -0.24117   1.31525   0.40749 
 8                    -1.17929  -0.73819   1.25187 
 8                    -0.96715  -1.42494  -0.90552 
 8                    -0.41987   2.47323  -0.4059 
 8                     2.19216   1.19837   0.08317 
 8                     1.92096  -1.68059  -0.38654 
 1                    -1.55663   0.3871   -1.76144 
 1                    -2.8545   -0.55499  -0.9737 
 1                    -2.34578   0.92485   0.88443 
 1                    -0.34055  -2.53985   0.71511 
 1                     0.79924   0.4636   -1.26468 
 1                     1.37866  -0.82126   1.4291 
 1                    -0.00078   1.59752   1.44118 
 1                    -0.95369   3.11377   0.09107 
 1                     2.15439   2.06225  -0.35978 
 1                     2.75959  -1.19263  -0.44338 
 
                          Input orientation:                          
 ---------------------------------------------------------------------
 Center     Atomic      Atomic             Coordinates (Angstroms)
 Number     Number       Type             X           Y           Z
 ---------------------------------------------------------------------
      1          6           0       -1.804675   -0.249647   -0.907448
      2          6           0       -1.490920    0.411044    0.439668
      3          6           0       -0.358581   -1.498934    0.382118
      4          6           0        0.950370    0.549191   -0.179646
      5          6           0        1.042571   -0.870813    0.382072
      6          6           0       -0.241172    1.315246    0.407487
      7          8           0       -1.179292   -0.738192    1.251872
      8          8           0       -0.967152   -1.424939   -0.905524
      9          8           0       -0.419866    2.473234   -0.405902
     10          8           0        2.192160    1.198373    0.083166
     11          8           0        1.920962   -1.680585   -0.386539
     12          1           0       -1.556628    0.387097   -1.761442
     13          1           0       -2.854500   -0.554988   -0.973695
     14          1           0       -2.345778    0.924847    0.884426
     15          1           0       -0.340553   -2.539850    0.715114
     16          1           0        0.799238    0.463598   -1.264677
     17          1           0        1.378655   -0.821264    1.429100
     18          1           0       -0.000776    1.597522    1.441176
     19          1           0       -0.953687    3.113774    0.091068
     20          1           0        2.154392    2.062246   -0.359775
     21          1           0        2.759591   -1.192633   -0.443380
 ---------------------------------------------------------------------
                    Distance matrix (angstroms):
                    1          2          3          4          5
     1  C    0.000000
     2  C    1.532865   0.000000
     3  C    2.305404   2.221153   0.000000
     4  C    2.959411   2.522406   2.494744   0.000000
     5  C    3.186772   2.839903   1.535501   1.529850   0.000000
     6  C    2.573419   1.542883   2.816742   1.533407   2.535251
     7  O    2.300531   1.441364   1.417310   2.870899   2.389731
     8  O    1.443177   2.335532   1.426133   2.846222   2.450295
     9  O    3.095695   2.472807   4.050043   2.372905   3.733936
    10  O    4.364948   3.783128   3.724395   1.425675   2.385881
    11  O    4.024835   4.086376   2.412498   2.440646   1.420586
    12  H    1.093744   2.202221   3.096333   2.968736   3.596224
    13  H    1.095333   2.188644   2.993138   4.040639   4.138238
    14  H    2.209760   1.092056   3.174268   3.483957   3.867514
    15  H    3.165658   3.179149   1.093031   3.465437   2.193088
    16  H    2.723361   2.855237   2.811407   1.098845   2.133459
    17  H    3.989961   3.275976   2.138550   2.156302   1.100761
    18  H    3.490289   2.152040   3.292061   2.151916   2.881484
    19  H    3.610238   2.777569   4.660036   3.205590   4.466169
    20  H    4.617251   4.080916   4.421249   1.942022   3.223247
    21  H    4.683706   4.628001   3.240102   2.525230   1.932122
                    6          7          8          9         10
     6  C    0.000000
     7  O    2.410324   0.000000
     8  O    3.124045   2.273979   0.000000
     9  O    1.426348   3.692993   3.967984   0.000000
    10  O    2.457631   4.059907   4.223805   2.947395   0.000000
    11  O    3.778929   3.630987   2.945489   4.768025   2.929602
    12  H    2.701136   3.238629   2.088912   2.735267   4.256073
    13  H    3.497845   2.791601   2.079313   3.926826   5.446100
    14  H    2.193000   2.064317   3.259758   2.787756   4.616245
    15  H    3.868627   2.058534   2.064490   5.137507   4.559419
    16  H    2.145668   3.419342   2.610689   2.502468   2.072874
    17  H    2.869182   2.565425   3.364179   4.177993   2.559739
    18  H    1.098173   2.623032   3.946664   2.086673   2.610073
    19  H    1.960230   4.029393   4.646858   0.970688   3.683093
    20  H    2.624010   4.642554   4.711936   2.607267   0.971545
    21  H    4.002251   4.312215   3.762467   4.852724   2.513193
                   11         12         13         14         15
    11  O    0.000000
    12  H    4.273090   0.000000
    13  H    4.941332   1.786768   0.000000
    14  H    5.158362   2.812926   2.429264   0.000000
    15  H    2.658275   4.022336   3.621006   4.006709   0.000000
    16  H    2.574279   2.408886   3.804207   3.836994   3.773512
    17  H    2.080643   4.500620   4.874826   4.149334   2.533573
    18  H    4.216587   3.760660   4.313774   2.502298   4.214316
    19  H    5.610490   3.351134   4.266922   2.712699   5.720912
    20  H    3.750199   4.306096   5.684700   4.805543   5.344102
    21  H    0.971919   4.781483   5.675019   5.684328   3.573233
                   16         17         18         19         20
    16  H    0.000000
    17  H    3.040235   0.000000
    18  H    3.040961   2.784511   0.000000
    19  H    3.454595   4.765991   2.242733   0.000000
    20  H    2.282754   3.480872   2.846777   3.311967   0.000000
    21  H    2.694553   2.356073   4.353865   5.711323   3.311721
                   21
    21  H    0.000000
 Stoichiometry    C6H10O5
 Framework group  C1[X(C6H10O5)]
 Deg. of freedom    57
 Full point group                 C1      NOp   1
 Largest Abelian subgroup         C1      NOp   1
 Largest concise Abelian subgroup C1      NOp   1
                         Standard orientation:                         
 ---------------------------------------------------------------------
 Center     Atomic      Atomic             Coordinates (Angstroms)
 Number     Number       Type             X           Y           Z
 ---------------------------------------------------------------------
      1          6           0       -1.804675   -0.249645   -0.907448
      2          6           0       -1.490920    0.411046    0.439668
      3          6           0       -0.358583   -1.498934    0.382118
      4          6           0        0.950371    0.549190   -0.179646
      5          6           0        1.042570   -0.870814    0.382072
      6          6           0       -0.241171    1.315246    0.407487
      7          8           0       -1.179293   -0.738191    1.251872
      8          8           0       -0.967154   -1.424938   -0.905524
      9          8           0       -0.419863    2.473234   -0.405902
     10          8           0        2.192161    1.198370    0.083166
     11          8           0        1.920960   -1.680587   -0.386539
     12          1           0       -1.556628    0.387099   -1.761442
     13          1           0       -2.854501   -0.554985   -0.973695
     14          1           0       -2.345777    0.924850    0.884426
     15          1           0       -0.340556   -2.539850    0.715114
     16          1           0        0.799238    0.463597   -1.264677
     17          1           0        1.378654   -0.821266    1.429100
     18          1           0       -0.000774    1.597522    1.441176
     19          1           0       -0.953683    3.113775    0.091068
     20          1           0        2.154394    2.062244   -0.359775
     21          1           0        2.759590   -1.192636   -0.443380
 ---------------------------------------------------------------------
 Rotational constants (GHZ):      1.3726631      1.3490399      0.8464506
 Standard basis: 6-31+G(d,p) (6D, 7F)
 There are   259 symmetry adapted basis functions of A   symmetry.
 Integral buffers will be    131072 words long.
 Raffenetti 2 integral format.
 Two-electron integral symmetry is turned on.
   259 basis functions,   422 primitive gaussians,   259 cartesian basis functions
    43 alpha electrons       43 beta electrons
       nuclear repulsion energy       722.7345446356 Hartrees.
 NAtoms=   21 NActive=   21 NUniq=   21 SFac= 1.00D+00 NAtFMM=   60 NAOKFM=F Big=F
 ------------------------------------------------------------------------------
 Polarizable Continuum Model (PCM)
 =================================
 Model                : PCM.
 Atomic radii         : UFF (Universal Force Field).
 Polarization charges : Total charges.
 Charge compensation  : None.
 Solution method      : Matrix inversion.
 Cavity type          : Scaled VdW (van der Waals Surface) (Alpha=1.100).
 Cavity algorithm     : GePol (No added spheres)
                        Default sphere list used, NSphG=   21.
                        Lebedev-Laikov grids with approx.  5.0 points / Ang**2.
                        Smoothing algorithm: Karplus/York (Gamma=1.0000).
                        Polarization charges: spherical gaussians, with
                                              point-specific exponents (IZeta= 3).
                        Self-potential: point-specific (ISelfS= 7).
                        Self-field    : sphere-specific E.n sum rule (ISelfD= 2).
 Solvent              : Water, Eps=  78.355300 Eps(inf)=   1.777849
 ------------------------------------------------------------------------------
 One-electron integrals computed using PRISM.
 NBasis=   259 RedAO= T  NBF=   259
 NBsUse=   259 1.00D-06 NBFU=   259
 Harris functional with IExCor=  908 diagonalized for initial guess.
 ExpMin= 4.38D-02 ExpMax= 5.48D+03 ExpMxC= 8.25D+02 IAcc=2 IRadAn=         4 AccDes= 0.00D+00
 HarFok:  IExCor=  908 AccDes= 0.00D+00 IRadAn=         4 IDoV= 1
 ScaDFX=  1.000000  1.000000  1.000000  1.000000
 FoFCou: FMM=F IPFlag=           0 FMFlag=      100000 FMFlg1=           0
         NFxFlg=           0 DoJE=T BraDBF=F KetDBF=T FulRan=T
         Omega=  0.000000  0.000000  1.000000  0.000000  0.000000 ICntrl=     500 IOpCl=  0
         NMat0=    1 NMatS0=    1 NMatT0=    0 NMatD0=    1 NMtDS0=    0 NMtDT0=    0
         I1Cent=           4 NGrid=           0.
 Petite list used in FoFCou.
 Initial guess orbital symmetries:
       Occupied  (A) (A) (A) (A) (A) (A) (A) (A) (A) (A) (A) (A)
                 (A) (A) (A) (A) (A) (A) (A) (A) (A) (A) (A) (A)
                 (A) (A) (A) (A) (A) (A) (A) (A) (A) (A) (A) (A)
                 (A) (A) (A) (A) (A) (A) (A)
       Virtual   (A) (A) (A) (A) (A) (A) (A) (A) (A) (A) (A) (A)
                 (A) (A) (A) (A) (A) (A) (A) (A) (A) (A) (A) (A)
                 (A) (A) (A) (A) (A) (A) (A) (A) (A) (A) (A) (A)
                 (A) (A) (A) (A) (A) (A) (A) (A) (A) (A) (A) (A)
                 (A) (A) (A) (A) (A) (A) (A) (A) (A) (A) (A) (A)
                 (A) (A) (A) (A) (A) (A) (A) (A) (A) (A) (A) (A)
                 (A) (A) (A) (A) (A) (A) (A) (A) (A) (A) (A) (A)
                 (A) (A) (A) (A) (A) (A) (A) (A) (A) (A) (A) (A)
                 (A) (A) (A) (A) (A) (A) (A) (A) (A) (A) (A) (A)
                 (A) (A) (A) (A) (A) (A) (A) (A) (A) (A) (A) (A)
                 (A) (A) (A) (A) (A) (A) (A) (A) (A) (A) (A) (A)
                 (A) (A) (A) (A) (A) (A) (A) (A) (A) (A) (A) (A)
                 (A) (A) (A) (A) (A) (A) (A) (A) (A) (A) (A) (A)
                 (A) (A) (A) (A) (A) (A) (A) (A) (A) (A) (A) (A)
                 (A) (A) (A) (A) (A) (A) (A) (A) (A) (A) (A) (A)
                 (A) (A) (A) (A) (A) (A) (A) (A) (A) (A) (A) (A)
                 (A) (A) (A) (A) (A) (A) (A) (A) (A) (A) (A) (A)
                 (A) (A) (A) (A) (A) (A) (A) (A) (A) (A) (A) (A)
 The electronic state of the initial guess is 1-A.
 Requested convergence on RMS density matrix=1.00D-08 within 128 cycles.
 Requested convergence on MAX density matrix=1.00D-06.
 Requested convergence on             energy=1.00D-06.
 No special actions if energy rises.
 Error on total polarization charges =  0.01161
 SCF Done:  E(RmPW1PW91) =  -610.651766246     A.U. after   12 cycles
             Convg  =    0.4725D-08             -V/T =  2.0090
 Range of M.O.s used for correlation:     1   259
 NBasis=   259 NAE=    43 NBE=    43 NFC=     0 NFV=     0
 NROrb=    259 NOA=    43 NOB=    43 NVA=   216 NVB=   216

 **** Warning!!: The largest alpha MO coefficient is  0.60079297D+02

 NEqPCM:  Using equilibrium solvation (IEInf=0, Eps=  78.3553, EpsInf=   1.7778)
          Differentiating once with respect to magnetic field using GIAOs.
          Electric field/nuclear overlap derivatives assumed to be zero.
 FoFCou: FMM=F IPFlag=           0 FMFlag=    10101102 FMFlg1=           0
         NFxFlg=    40000000 DoJE=F BraDBF=F KetDBF=T FulRan=T
         Omega=  0.000000  0.000000  1.000000  0.000000  0.000000 ICntrl=    6100 IOpCl=  0
         NMat0=    1 NMatS0=    1 NMatT0=    0 NMatD0=    1 NMtDS0=    0 NMtDT0=    0
         I1Cent=           7 NGrid=        1539.
 Symmetry not used in FoFCou.
          There are     3 degrees of freedom in the 1st order CPHF.  IDoFFX=0.
      3 vectors produced by pass  0 Test12= 3.10D-13 3.33D-08 XBig12= 2.43D+01 1.15D+00.
 AX will form     3 AO Fock derivatives at one time.
      3 vectors produced by pass  1 Test12= 3.10D-13 3.33D-08 XBig12= 5.99D-02 4.08D-02.
      3 vectors produced by pass  2 Test12= 3.10D-13 3.33D-08 XBig12= 1.61D-04 2.56D-03.
      3 vectors produced by pass  3 Test12= 3.10D-13 3.33D-08 XBig12= 7.47D-07 1.81D-04.
      3 vectors produced by pass  4 Test12= 3.10D-13 3.33D-08 XBig12= 2.17D-09 6.03D-06.
      3 vectors produced by pass  5 Test12= 3.10D-13 3.33D-08 XBig12= 6.08D-12 3.60D-07.
 Inverted reduced A of dimension    18 with in-core refinement.
 Calculating GIAO nuclear magnetic shielding tensors.
 SCF GIAO Magnetic shielding tensor (ppm):
      1  C    Isotropic =   130.1572   Anisotropy =    68.0424
   XX=   129.9820   YX=   -35.5436   ZX=     5.9604
   XY=   -33.0527   YY=   149.3662   ZY=    11.0217
   XZ=     0.5766   YZ=     2.9539   ZZ=   111.1233
   Eigenvalues:    99.8426   115.1101   175.5188
      2  C    Isotropic =   117.6858   Anisotropy =    63.1332
   XX=    95.5878   YX=     0.5879   ZX=    14.8410
   XY=   -13.1279   YY=   143.2178   ZY=   -24.6264
   XZ=    10.7522   YZ=   -25.2244   ZZ=   114.2519
   Eigenvalues:    88.1714   105.1114   159.7746
      3  C    Isotropic =    93.1503   Anisotropy =    29.8330
   XX=    95.4123   YX=   -20.5334   ZX=     1.0682
   XY=    -6.9882   YY=    75.1776   ZY=    12.8097
   XZ=     1.5184   YZ=    10.2548   ZZ=   108.8611
   Eigenvalues:    65.4624   100.9497   113.0390
      4  C    Isotropic =   119.5700   Anisotropy =    21.5827
   XX=   129.4480   YX=     7.3095   ZX=     4.7417
   XY=     4.1330   YY=   123.2040   ZY=     6.1115
   XZ=     1.0032   YZ=     5.6988   ZZ=   106.0579
   Eigenvalues:   104.1744   120.5772   133.9585
      5  C    Isotropic =   119.3354   Anisotropy =    25.3578
   XX=   125.0865   YX=   -10.2751   ZX=    -8.1406
   XY=    -2.2537   YY=   117.7492   ZY=     2.4236
   XZ=   -12.5081   YZ=    12.2398   ZZ=   115.1705
   Eigenvalues:   107.4597   114.3059   136.2406
      6  C    Isotropic =   121.8506   Anisotropy =    30.4680
   XX=   121.2182   YX=     4.0862   ZX=     2.1471
   XY=    -7.2146   YY=   129.9849   ZY=   -14.6479
   XZ=     9.4849   YZ=   -20.0351   ZZ=   114.3486
   Eigenvalues:   102.2611   121.1281   142.1626
      7  O    Isotropic =   231.2185   Anisotropy =    63.0684
   XX=   223.0012   YX=   -40.3840   ZX=     5.5194
   XY=   -35.8400   YY=   201.2754   ZY=    18.3241
   XZ=    22.1384   YZ=     6.3726   ZZ=   269.3789
   Eigenvalues:   169.2014   251.1900   273.2641
      8  O    Isotropic =   266.3930   Anisotropy =    99.9213
   XX=   235.6938   YX=   -52.6122   ZX=    37.6909
   XY=   -48.7490   YY=   245.3904   ZY=    27.9623
   XZ=    16.2829   YZ=    42.7988   ZZ=   318.0947
   Eigenvalues:   176.0875   290.0843   333.0072
      9  O    Isotropic =   303.5063   Anisotropy =    57.7146
   XX=   291.7520   YX=   -43.7428   ZX=    -1.5810
   XY=   -25.5840   YY=   315.7987   ZY=     4.4427
   XZ=   -11.9625   YZ=     4.7841   ZZ=   302.9683
   Eigenvalues:   266.8571   301.6792   341.9827
     10  O    Isotropic =   306.4231   Anisotropy =    40.9924
   XX=   292.2655   YX=     7.2407   ZX=     6.0436
   XY=    25.0923   YY=   320.4557   ZY=    -2.4915
   XZ=    34.3248   YZ=     8.8157   ZZ=   306.5480
   Eigenvalues:   274.9456   310.5722   333.7513
     11  O    Isotropic =   301.5963   Anisotropy =    27.1219
   XX=   309.8519   YX=     0.3349   ZX=   -12.3144
   XY=     6.1482   YY=   294.6917   ZY=    -3.8295
   XZ=   -15.3140   YZ=    13.9422   ZZ=   300.2452
   Eigenvalues:   286.1889   298.9223   319.6776
     12  H    Isotropic =    27.3678   Anisotropy =     6.0055
   XX=    25.5810   YX=    -0.8078   ZX=     2.4558
   XY=    -0.2122   YY=    28.1371   ZY=    -3.4858
   XZ=     2.2121   YZ=    -1.2115   ZZ=    28.3852
   Eigenvalues:    24.0966    26.6353    31.3714
     13  H    Isotropic =    27.7225   Anisotropy =    11.5800
   XX=    34.7200   YX=    -0.0438   ZX=     3.6347
   XY=    -1.6271   YY=    25.0803   ZY=     1.1649
   XZ=     2.1291   YZ=     0.8267   ZZ=    23.3674
   Eigenvalues:    22.2034    25.5217    35.4425
     14  H    Isotropic =    27.2025   Anisotropy =     7.4987
   XX=    29.3876   YX=    -2.9076   ZX=    -3.1071
   XY=    -2.5218   YY=    27.3808   ZY=     1.7399
   XZ=    -1.9553   YZ=     0.0693   ZZ=    24.8390
   Eigenvalues:    23.6794    25.7263    32.2016
     15  H    Isotropic =    26.1438   Anisotropy =     7.5469
   XX=    23.8952   YX=    -0.5449   ZX=     0.4815
   XY=    -0.6626   YY=    29.8906   ZY=    -2.5455
   XZ=     0.1664   YZ=    -3.0726   ZZ=    24.6458
   Eigenvalues:    23.4176    23.8388    31.1751
     16  H    Isotropic =    27.8957   Anisotropy =     5.6890
   XX=    30.0954   YX=     2.8692   ZX=     1.4224
   XY=     2.1276   YY=    26.1606   ZY=     1.3666
   XZ=     0.3834   YZ=     0.7116   ZZ=    27.4312
   Eigenvalues:    24.8241    27.1747    31.6884
     17  H    Isotropic =    27.9413   Anisotropy =     3.5912
   XX=    28.0708   YX=    -2.0100   ZX=     0.1145
   XY=    -2.7218   YY=    25.6750   ZY=     0.4483
   XZ=     0.9969   YZ=    -0.3162   ZZ=    30.0781
   Eigenvalues:    24.2004    29.2881    30.3354
     18  H    Isotropic =    27.7866   Anisotropy =     3.5663
   XX=    24.8020   YX=     0.3358   ZX=     0.7717
   XY=     0.2269   YY=    28.5172   ZY=    -0.2725
   XZ=     0.2797   YZ=     0.9029   ZZ=    30.0406
   Eigenvalues:    24.7333    28.4623    30.1641
     19  H    Isotropic =    29.7751   Anisotropy =    21.0650
   XX=    26.1694   YX=    -8.5437   ZX=    -5.2509
   XY=    -8.5695   YY=    37.0845   ZY=     4.3674
   XZ=    -4.4054   YZ=     3.9850   ZZ=    26.0716
   Eigenvalues:    20.2780    25.2290    43.8184
     20  H    Isotropic =    29.0451   Anisotropy =    18.4813
   XX=    27.4745   YX=     3.7999   ZX=     0.3298
   XY=     2.5922   YY=    37.0782   ZY=    -8.3499
   XZ=    -0.7982   YZ=    -7.8779   ZZ=    22.5826
   Eigenvalues:    18.8063    26.9630    41.3659
     21  H    Isotropic =    29.1995   Anisotropy =    17.8386
   XX=    39.4846   YX=     3.8652   ZX=    -3.5971
   XY=     3.8779   YY=    28.2989   ZY=     2.0621
   XZ=    -3.2945   YZ=     0.6587   ZZ=    19.8150
   Eigenvalues:    18.7841    27.7225    41.0918
 End of Minotr Frequency-dependent properties file   721 does not exist.
 End of Minotr Frequency-dependent properties file   722 does not exist.

 **********************************************************************

            Population analysis using the SCF density.

 **********************************************************************

 Orbital symmetries:
       Occupied  (A) (A) (A) (A) (A) (A) (A) (A) (A) (A) (A) (A)
                 (A) (A) (A) (A) (A) (A) (A) (A) (A) (A) (A) (A)
                 (A) (A) (A) (A) (A) (A) (A) (A) (A) (A) (A) (A)
                 (A) (A) (A) (A) (A) (A) (A)
       Virtual   (A) (A) (A) (A) (A) (A) (A) (A) (A) (A) (A) (A)
                 (A) (A) (A) (A) (A) (A) (A) (A) (A) (A) (A) (A)
                 (A) (A) (A) (A) (A) (A) (A) (A) (A) (A) (A) (A)
                 (A) (A) (A) (A) (A) (A) (A) (A) (A) (A) (A) (A)
                 (A) (A) (A) (A) (A) (A) (A) (A) (A) (A) (A) (A)
                 (A) (A) (A) (A) (A) (A) (A) (A) (A) (A) (A) (A)
                 (A) (A) (A) (A) (A) (A) (A) (A) (A) (A) (A) (A)
                 (A) (A) (A) (A) (A) (A) (A) (A) (A) (A) (A) (A)
                 (A) (A) (A) (A) (A) (A) (A) (A) (A) (A) (A) (A)
                 (A) (A) (A) (A) (A) (A) (A) (A) (A) (A) (A) (A)
                 (A) (A) (A) (A) (A) (A) (A) (A) (A) (A) (A) (A)
                 (A) (A) (A) (A) (A) (A) (A) (A) (A) (A) (A) (A)
                 (A) (A) (A) (A) (A) (A) (A) (A) (A) (A) (A) (A)
                 (A) (A) (A) (A) (A) (A) (A) (A) (A) (A) (A) (A)
                 (A) (A) (A) (A) (A) (A) (A) (A) (A) (A) (A) (A)
                 (A) (A) (A) (A) (A) (A) (A) (A) (A) (A) (A) (A)
                 (A) (A) (A) (A) (A) (A) (A) (A) (A) (A) (A) (A)
                 (A) (A) (A) (A) (A) (A) (A) (A) (A) (A) (A) (A)
 The electronic state is 1-A.
 Alpha  occ. eigenvalues --  -19.27990 -19.27016 -19.26863 -19.26576 -19.26349
 Alpha  occ. eigenvalues --  -10.36071 -10.31889 -10.31617 -10.31292 -10.31226
 Alpha  occ. eigenvalues --  -10.30608  -1.14369  -1.08505  -1.07235  -1.05707
 Alpha  occ. eigenvalues --   -1.04126  -0.82405  -0.81488  -0.70698  -0.68239
 Alpha  occ. eigenvalues --   -0.64803  -0.60877  -0.57702  -0.56914  -0.53480
 Alpha  occ. eigenvalues --   -0.52267  -0.50819  -0.48929  -0.47979  -0.46170
 Alpha  occ. eigenvalues --   -0.44586  -0.43722  -0.42646  -0.40677  -0.38531
 Alpha  occ. eigenvalues --   -0.37847  -0.37001  -0.36443  -0.33270  -0.31408
 Alpha  occ. eigenvalues --   -0.30274  -0.29291  -0.28539
 Alpha virt. eigenvalues --    0.00549   0.01163   0.01783   0.02548   0.03950
 Alpha virt. eigenvalues --    0.04524   0.05054   0.05462   0.05947   0.08359
 Alpha virt. eigenvalues --    0.08804   0.09419   0.09983   0.10542   0.11378
 Alpha virt. eigenvalues --    0.11898   0.12259   0.13799   0.14156   0.14505
 Alpha virt. eigenvalues --    0.14982   0.15409   0.16046   0.16559   0.17374
 Alpha virt. eigenvalues --    0.17893   0.19091   0.19215   0.20806   0.20971
 Alpha virt. eigenvalues --    0.22294   0.22467   0.22698   0.23788   0.23932
 Alpha virt. eigenvalues --    0.24373   0.25167   0.25580   0.26325   0.27412
 Alpha virt. eigenvalues --    0.27791   0.28729   0.29071   0.29620   0.30434
 Alpha virt. eigenvalues --    0.31468   0.31706   0.32226   0.33278   0.33671
 Alpha virt. eigenvalues --    0.34561   0.35335   0.35782   0.36401   0.37755
 Alpha virt. eigenvalues --    0.38534   0.38795   0.39166   0.39748   0.40161
 Alpha virt. eigenvalues --    0.40667   0.41983   0.43392   0.44456   0.46027
 Alpha virt. eigenvalues --    0.47117   0.64072   0.66596   0.67197   0.69663
 Alpha virt. eigenvalues --    0.72395   0.73644   0.74408   0.75834   0.77827
 Alpha virt. eigenvalues --    0.78693   0.81501   0.82373   0.82922   0.86657
 Alpha virt. eigenvalues --    0.87813   0.91958   0.96319   0.97267   0.99207
 Alpha virt. eigenvalues --    1.02482   1.02921   1.05852   1.06001   1.07462
 Alpha virt. eigenvalues --    1.08243   1.08687   1.10679   1.13334   1.14715
 Alpha virt. eigenvalues --    1.20323   1.22604   1.23315   1.25427   1.25958
 Alpha virt. eigenvalues --    1.28034   1.29814   1.30893   1.31702   1.33025
 Alpha virt. eigenvalues --    1.35682   1.36848   1.38139   1.39968   1.40921
 Alpha virt. eigenvalues --    1.42691   1.44281   1.48877   1.50761   1.51301
 Alpha virt. eigenvalues --    1.54505   1.55073   1.56482   1.57403   1.58401
 Alpha virt. eigenvalues --    1.62132   1.64764   1.65024   1.66702   1.68917
 Alpha virt. eigenvalues --    1.70820   1.72552   1.75348   1.78232   1.79054
 Alpha virt. eigenvalues --    1.80975   1.82190   1.85740   1.87175   1.88297
 Alpha virt. eigenvalues --    1.91081   1.93051   1.95153   1.98027   2.00004
 Alpha virt. eigenvalues --    2.01300   2.01904   2.06161   2.06522   2.08653
 Alpha virt. eigenvalues --    2.09567   2.11603   2.12710   2.13039   2.17216
 Alpha virt. eigenvalues --    2.19687   2.21060   2.24198   2.26101   2.29431
 Alpha virt. eigenvalues --    2.32523   2.36618   2.38237   2.38639   2.40677
 Alpha virt. eigenvalues --    2.42896   2.44371   2.47630   2.51921   2.52331
 Alpha virt. eigenvalues --    2.55047   2.56783   2.60725   2.61655   2.63721
 Alpha virt. eigenvalues --    2.64105   2.65169   2.68136   2.68877   2.70686
 Alpha virt. eigenvalues --    2.71625   2.74327   2.76323   2.80325   2.82815
 Alpha virt. eigenvalues --    2.84289   2.86461   2.88914   2.90253   2.93303
 Alpha virt. eigenvalues --    2.93629   2.95398   2.97571   2.99791   3.04220
 Alpha virt. eigenvalues --    3.05930   3.09373   3.10510   3.16763   3.25444
 Alpha virt. eigenvalues --    3.34935   3.38207   3.44605   3.46311   3.49970
 Alpha virt. eigenvalues --    3.52698   3.53241   3.54295   3.56165   3.59759
 Alpha virt. eigenvalues --    4.32839   4.38170   4.42804   4.43248   4.49725
 Alpha virt. eigenvalues --    4.60504   4.64947   4.74942   4.84951   4.89862
 Alpha virt. eigenvalues --    4.96288
          Condensed to atoms (all electrons):
              1          2          3          4          5          6
     1  C    5.632111  -0.292808  -0.453276  -0.241164   0.330619   0.095351
     2  C   -0.292808   7.029973  -0.237844   0.347482  -0.371029  -0.507758
     3  C   -0.453276  -0.237844   6.891508  -0.263825  -0.930356   0.263221
     4  C   -0.241164   0.347482  -0.263825   6.507246  -0.033529  -0.533816
     5  C    0.330619  -0.371029  -0.930356  -0.033529   6.861038  -0.315566
     6  C    0.095351  -0.507758   0.263221  -0.533816  -0.315566   6.508783
     7  O   -0.050048   0.074712   0.331861  -0.042259  -0.093701  -0.048289
     8  O    0.184551  -0.141417   0.383853   0.077035  -0.254786  -0.014011
     9  O    0.042187  -0.183101  -0.015736  -0.178769   0.066849   0.303513
    10  O   -0.007033   0.007735   0.052788   0.256639  -0.096878  -0.112149
    11  O    0.013287  -0.006390  -0.170337  -0.145666   0.345062   0.038004
    12  H    0.495303  -0.180946   0.007310  -0.041930   0.033799   0.028136
    13  H    0.366478  -0.002438   0.003541   0.011520  -0.010927   0.019548
    14  H    0.007999   0.273933  -0.002342  -0.002808   0.011585   0.050350
    15  H    0.003452   0.033256   0.312622   0.029202   0.005210  -0.006083
    16  H    0.007631   0.003648  -0.008019   0.409510  -0.087761  -0.014542
    17  H   -0.002949   0.004920  -0.073606  -0.007324   0.360821   0.017631
    18  H    0.013392  -0.038675  -0.014268  -0.075628   0.021813   0.400885
    19  H   -0.006813  -0.024129   0.001834   0.018463  -0.007724   0.031549
    20  H    0.001184   0.003904  -0.005294   0.027734   0.030562  -0.060878
    21  H   -0.000987  -0.002972   0.044288  -0.040357  -0.023626   0.021042
              7          8          9         10         11         12
     1  C   -0.050048   0.184551   0.042187  -0.007033   0.013287   0.495303
     2  C    0.074712  -0.141417  -0.183101   0.007735  -0.006390  -0.180946
     3  C    0.331861   0.383853  -0.015736   0.052788  -0.170337   0.007310
     4  C   -0.042259   0.077035  -0.178769   0.256639  -0.145666  -0.041930
     5  C   -0.093701  -0.254786   0.066849  -0.096878   0.345062   0.033799
     6  C   -0.048289  -0.014011   0.303513  -0.112149   0.038004   0.028136
     7  O    8.232508  -0.047352   0.015167  -0.002730   0.007589   0.013676
     8  O   -0.047352   8.290196  -0.004132  -0.003671   0.017639  -0.041411
     9  O    0.015167  -0.004132   8.309002  -0.008818  -0.000364   0.011196
    10  O   -0.002730  -0.003671  -0.008818   8.295290  -0.015891   0.000105
    11  O    0.007589   0.017639  -0.000364  -0.015891   8.257743  -0.000181
    12  H    0.013676  -0.041411   0.011196   0.000105  -0.000181   0.521253
    13  H   -0.004688  -0.053973  -0.002090  -0.000009   0.000061  -0.036297
    14  H   -0.030629   0.006822  -0.002425  -0.000570   0.000047   0.002500
    15  H   -0.044349  -0.046871  -0.000069  -0.000788   0.001526  -0.000250
    16  H    0.000876   0.002502  -0.001972  -0.046940  -0.002080   0.001204
    17  H    0.001235   0.008564  -0.000784   0.000580  -0.044317  -0.000019
    18  H    0.006120  -0.000536  -0.039191   0.000448  -0.000259   0.000257
    19  H   -0.000299   0.000085   0.238387  -0.000249   0.000014  -0.000090
    20  H   -0.000006   0.000214   0.014028   0.240687   0.001547  -0.000009
    21  H   -0.000391  -0.001608  -0.000076   0.015318   0.240809   0.000003
             13         14         15         16         17         18
     1  C    0.366478   0.007999   0.003452   0.007631  -0.002949   0.013392
     2  C   -0.002438   0.273933   0.033256   0.003648   0.004920  -0.038675
     3  C    0.003541  -0.002342   0.312622  -0.008019  -0.073606  -0.014268
     4  C    0.011520  -0.002808   0.029202   0.409510  -0.007324  -0.075628
     5  C   -0.010927   0.011585   0.005210  -0.087761   0.360821   0.021813
     6  C    0.019548   0.050350  -0.006083  -0.014542   0.017631   0.400885
     7  O   -0.004688  -0.030629  -0.044349   0.000876   0.001235   0.006120
     8  O   -0.053973   0.006822  -0.046871   0.002502   0.008564  -0.000536
     9  O   -0.002090  -0.002425  -0.000069  -0.001972  -0.000784  -0.039191
    10  O   -0.000009  -0.000570  -0.000788  -0.046940   0.000580   0.000448
    11  O    0.000061   0.000047   0.001526  -0.002080  -0.044317  -0.000259
    12  H   -0.036297   0.002500  -0.000250   0.001204  -0.000019   0.000257
    13  H    0.535412  -0.003299   0.000344   0.000018   0.000020  -0.000133
    14  H   -0.003299   0.497290   0.000007  -0.000218  -0.000077  -0.005959
    15  H    0.000344   0.000007   0.530008  -0.000201  -0.003018  -0.000080
    16  H    0.000018  -0.000218  -0.000201   0.537120   0.004316   0.004422
    17  H    0.000020  -0.000077  -0.003018   0.004316   0.555589   0.001355
    18  H   -0.000133  -0.005959  -0.000080   0.004422   0.001355   0.543066
    19  H   -0.000013   0.001826   0.000000   0.000062   0.000009  -0.007089
    20  H    0.000000   0.000001   0.000004  -0.005188   0.000055  -0.000483
    21  H    0.000000  -0.000001  -0.000196  -0.000812  -0.004347   0.000008
             19         20         21
     1  C   -0.006813   0.001184  -0.000987
     2  C   -0.024129   0.003904  -0.002972
     3  C    0.001834  -0.005294   0.044288
     4  C    0.018463   0.027734  -0.040357
     5  C   -0.007724   0.030562  -0.023626
     6  C    0.031549  -0.060878   0.021042
     7  O   -0.000299  -0.000006  -0.000391
     8  O    0.000085   0.000214  -0.001608
     9  O    0.238387   0.014028  -0.000076
    10  O   -0.000249   0.240687   0.015318
    11  O    0.000014   0.001547   0.240809
    12  H   -0.000090  -0.000009   0.000003
    13  H   -0.000013   0.000000   0.000000
    14  H    0.001826   0.000001  -0.000001
    15  H    0.000000   0.000004  -0.000196
    16  H    0.000062  -0.005188  -0.000812
    17  H    0.000009   0.000055  -0.004347
    18  H   -0.007089  -0.000483   0.000008
    19  H    0.360636  -0.000661   0.000000
    20  H   -0.000661   0.360712  -0.000700
    21  H    0.000000  -0.000700   0.369451
 Mulliken atomic charges:
              1
     1  C   -0.138467
     2  C    0.209945
     3  C   -0.117925
     4  C   -0.077756
     5  C    0.158523
     6  C   -0.164921
     7  O   -0.319001
     8  O   -0.361695
     9  O   -0.562803
    10  O   -0.573863
    11  O   -0.537841
    12  H    0.186391
    13  H    0.176923
    14  H    0.195969
    15  H    0.186275
    16  H    0.196425
    17  H    0.181345
    18  H    0.190534
    19  H    0.394202
    20  H    0.392588
    21  H    0.385152
 Sum of Mulliken atomic charges =   0.00000
 Mulliken charges with hydrogens summed into heavy atoms:
              1
     1  C    0.224848
     2  C    0.405914
     3  C    0.068349
     4  C    0.118669
     5  C    0.339868
     6  C    0.025613
     7  O   -0.319001
     8  O   -0.361695
     9  O   -0.168601
    10  O   -0.181275
    11  O   -0.152689
 Sum of Mulliken charges with hydrogens summed into heavy atoms =   0.00000
 Electronic spatial extent (au):  <R**2>=           1462.1469
 Charge=              0.0000 electrons
 Dipole moment (field-independent basis, Debye):
    X=             -1.9127    Y=              4.8190    Z=              1.2251  Tot=              5.3275
 Quadrupole moment (field-independent basis, Debye-Ang):
   XX=            -60.1385   YY=            -62.6836   ZZ=            -67.9220
   XY=             -3.5399   XZ=             -0.7634   YZ=             -0.9327
 Traceless Quadrupole moment (field-independent basis, Debye-Ang):
   XX=              3.4428   YY=              0.8977   ZZ=             -4.3406
   XY=             -3.5399   XZ=             -0.7634   YZ=             -0.9327
 Octapole moment (field-independent basis, Debye-Ang**2):
  XXX=             -2.9880  YYY=             40.3532  ZZZ=             -3.7017  XYY=             -8.9707
  XXY=             12.8503  XXZ=             -9.9369  XZZ=              4.9111  YZZ=              7.2621
  YYZ=             18.5658  XYZ=             -9.8849
 Hexadecapole moment (field-independent basis, Debye-Ang**3):
 XXXX=           -714.0826 YYYY=           -662.2622 ZZZZ=           -254.6381 XXXY=            -23.9961
 XXXZ=            -19.1165 YYYX=              2.1111 YYYZ=              2.0256 ZZZX=              4.4803
 ZZZY=              0.0209 XXYY=           -242.6546 XXZZ=           -172.6755 YYZZ=           -177.2274
 XXYZ=             -2.3529 YYXZ=            -17.9050 ZZXY=             -6.4606
 N-N= 7.227345446356D+02 E-N=-2.875577640550D+03  KE= 6.052123081110D+02
 1\1\GINC-COMPUTE-8-20\SP\RmPW1PW91\6-31+G(d,p)\C6H10O5\MMARCARINO.IQUI
 R\12-Apr-2019\0\\# mpw1pw91/6-31+g** nmr scrf=(pcm,solvent=water)\\com
 ment\\0,1\C,0,-1.804675,-0.249647,-0.907448\C,0,-1.49092,0.411044,0.43
 9668\C,0,-0.358581,-1.498934,0.382118\C,0,0.95037,0.549191,-0.179646\C
 ,0,1.042571,-0.870813,0.382072\C,0,-0.241172,1.315246,0.407487\O,0,-1.
 179292,-0.738192,1.251872\O,0,-0.967152,-1.424939,-0.905524\O,0,-0.419
 866,2.473234,-0.405902\O,0,2.19216,1.198373,0.083166\O,0,1.920962,-1.6
 80585,-0.386539\H,0,-1.556628,0.387097,-1.761442\H,0,-2.8545,-0.554988
 ,-0.973695\H,0,-2.345778,0.924847,0.884426\H,0,-0.340553,-2.53985,0.71
 5114\H,0,0.799238,0.463598,-1.264677\H,0,1.378655,-0.821264,1.4291\H,0
 ,-0.000776,1.597522,1.441176\H,0,-0.953687,3.113774,0.091068\H,0,2.154
 392,2.062246,-0.359775\H,0,2.759591,-1.192633,-0.44338\\Version=EM64L-
 G09RevC.01\State=1-A\HF=-610.6517662\RMSD=4.725e-09\Dipole=-0.752522,1
 .8959526,0.4819863\Quadrupole=2.5596716,0.6674489,-3.2271205,-2.631854
 7,-0.567545,-0.6934275\PG=C01 [X(C6H10O5)]\\@


 WE HAVE LEARNED THAT NOTHING IS SIMPLE AND
 RATIONAL EXCEPT WHAT WE OURSELVES HAVE INVENTED;
 THAT GOD THINKS IN TERMS NEITHER OF EUCLID OR RIEMANN; THAT SCIENCE HAS "EXPLAINED" NOTHING;
 THAT THE MORE WE KNOW THE MORE FANTASTIC THE WORLD BECOMES
 AND THE PROFOUNDER THE SURROUNDING DARKNESS.
   --  ALDOUS HUXLEY
 Job cpu time:  0 days  0 hours 21 minutes  3.9 seconds.
 File lengths (MBytes):  RWF=     83 Int=      0 D2E=      0 Chk=      5 Scr=      1
 Normal termination of Gaussian 09 at Fri Apr 12 12:16:06 2019.
