 Entering Gaussian System, Link 0=g09
 Input=/home/mmarcarino.iquir/NMR/07_SRS_Levo01_OPTB_nmr.gjc
 Output=/home/mmarcarino.iquir/NMR/07_SRS_Levo01_OPTB_nmr.log
 Initial command:
 /share/apps/Gaussian09/EM64T.SSE4.2-enabled/g09/l1.exe /tmp/Gau-5320.inp -scrdir=/tmp/
 Entering Link 1 = /share/apps/Gaussian09/EM64T.SSE4.2-enabled/g09/l1.exe PID=      5321.
  
 Copyright (c) 1988,1990,1992,1993,1995,1998,2003,2009,2011,
            Gaussian, Inc.  All Rights Reserved.
  
 This is part of the Gaussian(R) 09 program.  It is based on
 the Gaussian(R) 03 system (copyright 2003, Gaussian, Inc.),
 the Gaussian(R) 98 system (copyright 1998, Gaussian, Inc.),
 the Gaussian(R) 94 system (copyright 1995, Gaussian, Inc.),
 the Gaussian 92(TM) system (copyright 1992, Gaussian, Inc.),
 the Gaussian 90(TM) system (copyright 1990, Gaussian, Inc.),
 the Gaussian 88(TM) system (copyright 1988, Gaussian, Inc.),
 the Gaussian 86(TM) system (copyright 1986, Carnegie Mellon
 University), and the Gaussian 82(TM) system (copyright 1983,
 Carnegie Mellon University). Gaussian is a federally registered
 trademark of Gaussian, Inc.
  
 This software contains proprietary and confidential information,
 including trade secrets, belonging to Gaussian, Inc.
  
 This software is provided under written license and may be
 used, copied, transmitted, or stored only in accord with that
 written license.
  
 The following legend is applicable only to US Government
 contracts under FAR:
  
                    RESTRICTED RIGHTS LEGEND
  
 Use, reproduction and disclosure by the US Government is
 subject to restrictions as set forth in subparagraphs (a)
 and (c) of the Commercial Computer Software - Restricted
 Rights clause in FAR 52.227-19.
  
 Gaussian, Inc.
 340 Quinnipiac St., Bldg. 40, Wallingford CT 06492
  
  
 ---------------------------------------------------------------
 Warning -- This program may not be used in any manner that
 competes with the business of Gaussian, Inc. or will provide
 assistance to any competitor of Gaussian, Inc.  The licensee
 of this program is prohibited from giving any competitor of
 Gaussian, Inc. access to this program.  By using this program,
 the user acknowledges that Gaussian, Inc. is engaged in the
 business of creating and licensing software in the field of
 computational chemistry and represents and warrants to the
 licensee that it is not a competitor of Gaussian, Inc. and that
 it will not use this program in any manner prohibited above.
 ---------------------------------------------------------------
  

 Cite this work as:
 Gaussian 09, Revision C.01,
 M. J. Frisch, G. W. Trucks, H. B. Schlegel, G. E. Scuseria, 
 M. A. Robb, J. R. Cheeseman, G. Scalmani, V. Barone, B. Mennucci, 
 G. A. Petersson, H. Nakatsuji, M. Caricato, X. Li, H. P. Hratchian, 
 A. F. Izmaylov, J. Bloino, G. Zheng, J. L. Sonnenberg, M. Hada, 
 M. Ehara, K. Toyota, R. Fukuda, J. Hasegawa, M. Ishida, T. Nakajima, 
 Y. Honda, O. Kitao, H. Nakai, T. Vreven, J. A. Montgomery, Jr., 
 J. E. Peralta, F. Ogliaro, M. Bearpark, J. J. Heyd, E. Brothers, 
 K. N. Kudin, V. N. Staroverov, T. Keith, R. Kobayashi, J. Normand, 
 K. Raghavachari, A. Rendell, J. C. Burant, S. S. Iyengar, J. Tomasi, 
 M. Cossi, N. Rega, J. M. Millam, M. Klene, J. E. Knox, J. B. Cross, 
 V. Bakken, C. Adamo, J. Jaramillo, R. Gomperts, R. E. Stratmann, 
 O. Yazyev, A. J. Austin, R. Cammi, C. Pomelli, J. W. Ochterski, 
 R. L. Martin, K. Morokuma, V. G. Zakrzewski, G. A. Voth, 
 P. Salvador, J. J. Dannenberg, S. Dapprich, A. D. Daniels, 
 O. Farkas, J. B. Foresman, J. V. Ortiz, J. Cioslowski, 
 and D. J. Fox, Gaussian, Inc., Wallingford CT, 2010.
 
 ******************************************
 Gaussian 09:  EM64L-G09RevC.01 23-Sep-2011
                12-Apr-2019 
 ******************************************
 %nprocshared=4
 Will use up to    4 processors via shared memory.
 ------------------------------------------------
 # mpw1pw91/6-31+g** nmr scrf=(pcm,solvent=water)
 ------------------------------------------------
 1/38=1/1;
 2/12=2,17=6,18=5,40=1/2;
 3/5=1,6=6,7=111,11=2,16=1,25=1,30=1,70=2201,72=1,74=-7/1,2,8,3;
 4//1;
 5/5=2,38=5,53=1/2;
 8/6=1,10=90,11=11/1;
 10/13=100,45=16/2;
 6/7=2,8=2,9=2,10=2,28=1/1;
 99/9=1/99;
 -------
 comment
 -------
 Charge =  0 Multiplicity = 1
 Symbolic Z-Matrix:
 6                    -1.17233   1.33758  -0.93394 
 6                    -0.43182   1.48945   0.40282 
 6                    -1.44587  -0.48565   0.4532 
 6                     0.98718  -0.50475  -0.16031 
 6                    -0.17145  -1.3437    0.40833 
 6                     0.99573   0.92414   0.39394 
 8                    -1.22285   0.65025   1.26419 
 8                    -1.7368    0.00868  -0.85833 
 8                     1.82347   1.7767   -0.38729 
 8                     2.26532  -1.07322   0.11245 
 8                    -0.36097  -2.53401  -0.35048 
 1                    -1.9852    2.06449  -1.02967 
 1                    -0.50973   1.41534  -1.80013 
 1                    -0.4485    2.50714   0.79617 
 1                    -2.30802  -1.04135   0.83048 
 1                     0.84188  -0.43539  -1.24875 
 1                     0.07244  -1.66649   1.42544 
 1                     1.34578   0.89226   1.43663 
 1                     2.67692   1.31973  -0.47724 
 1                     2.29559  -1.9322   -0.34045 
 1                    -0.69527  -2.25317  -1.22096 
 
                          Input orientation:                          
 ---------------------------------------------------------------------
 Center     Atomic      Atomic             Coordinates (Angstroms)
 Number     Number       Type             X           Y           Z
 ---------------------------------------------------------------------
      1          6           0       -1.172328    1.337583   -0.933941
      2          6           0       -0.431819    1.489450    0.402823
      3          6           0       -1.445874   -0.485653    0.453202
      4          6           0        0.987183   -0.504747   -0.160309
      5          6           0       -0.171446   -1.343695    0.408328
      6          6           0        0.995729    0.924141    0.393937
      7          8           0       -1.222846    0.650251    1.264188
      8          8           0       -1.736801    0.008678   -0.858333
      9          8           0        1.823470    1.776701   -0.387294
     10          8           0        2.265321   -1.073222    0.112452
     11          8           0       -0.360965   -2.534011   -0.350483
     12          1           0       -1.985199    2.064490   -1.029671
     13          1           0       -0.509733    1.415336   -1.800134
     14          1           0       -0.448498    2.507140    0.796174
     15          1           0       -2.308021   -1.041348    0.830479
     16          1           0        0.841878   -0.435388   -1.248754
     17          1           0        0.072437   -1.666491    1.425439
     18          1           0        1.345776    0.892256    1.436630
     19          1           0        2.676924    1.319727   -0.477239
     20          1           0        2.295593   -1.932198   -0.340446
     21          1           0       -0.695265   -2.253166   -1.220957
 ---------------------------------------------------------------------
                    Distance matrix (angstroms):
                    1          2          3          4          5
     1  C    0.000000
     2  C    1.535694   0.000000
     3  C    2.307202   2.220783   0.000000
     4  C    2.942138   2.511475   2.509288   0.000000
     5  C    3.161124   2.845090   1.537015   1.539351   0.000000
     6  C    2.575784   1.535430   2.820010   1.532639   2.550605
     7  O    2.303638   1.439419   1.413406   2.871836   2.411174
     8  O    1.445799   2.342259   1.431477   2.858484   2.425630
     9  O    3.076760   2.406891   4.063655   2.440472   3.788083
    10  O    4.327164   3.731778   3.772839   1.425201   2.469521
    11  O    3.998496   4.093987   2.453305   2.443682   1.424277
    12  H    1.094677   2.189909   2.998835   4.023907   4.119862
    13  H    1.093329   2.205580   3.093161   2.935388   3.550210
    14  H    2.210224   1.091190   3.173200   3.470951   3.880221
    15  H    3.172111   3.179302   1.092901   3.482524   2.198767
    16  H    2.701770   2.838135   2.851840   1.100289   2.144241
    17  H    4.017533   3.355590   2.155201   2.168180   1.094619
    18  H    3.486943   2.141318   3.264824   2.151841   2.891167
    19  H    3.876292   3.235367   4.595931   2.506866   3.998907
    20  H    4.803143   4.438344   4.089125   1.944737   2.644481
    21  H    3.633655   4.088183   2.547612   2.648127   1.938064
                    6          7          8          9         10
     6  C    0.000000
     7  O    2.398839   0.000000
     8  O    3.142129   2.276150   0.000000
     9  O    1.422088   3.643669   4.002913   0.000000
    10  O    2.383392   4.057606   4.257923   2.926951   0.000000
    11  O    3.788614   3.672809   2.935320   4.832737   3.040656
    12  H    3.494708   2.800543   2.077841   3.873168   5.405238
    13  H    2.705852   3.237894   2.090783   2.751461   4.189491
    14  H    2.180246   2.065596   3.261814   2.663827   4.544368
    15  H    3.868912   2.056019   2.069042   5.147192   4.629475
    16  H    2.137855   3.428786   2.645602   2.568847   2.070242
    17  H    2.937318   2.659145   3.360825   4.267047   2.623860
    18  H    1.100345   2.585754   3.943329   2.082579   2.542069
    19  H    1.934387   4.323074   4.620070   0.972265   2.498671
    20  H    3.222986   4.650087   4.505043   3.739121   0.971531
    21  H    3.944949   3.857994   2.516393   4.824816   3.454753
                   11         12         13         14         15
    11  O    0.000000
    12  H    4.923987   0.000000
    13  H    4.209627   1.786621   0.000000
    14  H    5.170656   2.427159   2.817197   0.000000
    15  H    2.722819   3.634639   4.023588   4.006341   0.000000
    16  H    2.580299   3.780179   2.357128   3.808579   3.822599
    17  H    2.023444   4.917484   4.498989   4.252828   2.532067
    18  H    4.224458   4.307223   3.767382   2.497489   4.178095
    19  H    4.908781   4.753445   3.451663   3.577680   5.668728
    20  H    2.723891   5.896925   4.605054   5.341317   4.833005
    21  H    0.973835   4.510285   3.718572   5.175927   2.877130
                   16         17         18         19         20
    16  H    0.000000
    17  H    3.042854   0.000000
    18  H    3.037736   2.858094   0.000000
    19  H    2.653876   4.395570   2.370144   0.000000
    20  H    2.275687   2.851556   3.469538   3.277063   0.000000
    21  H    2.380735   2.817262   4.595900   4.968937   3.134255
                   21
    21  H    0.000000
 Stoichiometry    C6H10O5
 Framework group  C1[X(C6H10O5)]
 Deg. of freedom    57
 Full point group                 C1      NOp   1
 Largest Abelian subgroup         C1      NOp   1
 Largest concise Abelian subgroup C1      NOp   1
                         Standard orientation:                         
 ---------------------------------------------------------------------
 Center     Atomic      Atomic             Coordinates (Angstroms)
 Number     Number       Type             X           Y           Z
 ---------------------------------------------------------------------
      1          6           0        1.172315   -1.337594   -0.933941
      2          6           0        0.431805   -1.489454    0.402823
      3          6           0        1.445879    0.485639    0.453202
      4          6           0       -0.987178    0.504757   -0.160309
      5          6           0        0.171459    1.343693    0.408328
      6          6           0       -0.995738   -0.924131    0.393937
      7          8           0        1.222840   -0.650263    1.264188
      8          8           0        1.736801   -0.008695   -0.858333
      9          8           0       -1.823487   -1.776683   -0.387294
     10          8           0       -2.265311    1.073244    0.112452
     11          8           0        0.360989    2.534008   -0.350483
     12          1           0        1.985179   -2.064509   -1.029671
     13          1           0        0.509719   -1.415341   -1.800134
     14          1           0        0.448474   -2.507144    0.796174
     15          1           0        2.308031    1.041326    0.830479
     16          1           0       -0.841874    0.435396   -1.248754
     17          1           0       -0.072421    1.666492    1.425439
     18          1           0       -1.345785   -0.892243    1.436630
     19          1           0       -2.676937   -1.319701   -0.477239
     20          1           0       -2.295575    1.932220   -0.340446
     21          1           0        0.695287    2.253159   -1.220957
 ---------------------------------------------------------------------
 Rotational constants (GHZ):      1.3801519      1.3397450      0.8492520
 Standard basis: 6-31+G(d,p) (6D, 7F)
 There are   259 symmetry adapted basis functions of A   symmetry.
 Integral buffers will be    131072 words long.
 Raffenetti 2 integral format.
 Two-electron integral symmetry is turned on.
   259 basis functions,   422 primitive gaussians,   259 cartesian basis functions
    43 alpha electrons       43 beta electrons
       nuclear repulsion energy       723.2746132069 Hartrees.
 NAtoms=   21 NActive=   21 NUniq=   21 SFac= 1.00D+00 NAtFMM=   60 NAOKFM=F Big=F
 ------------------------------------------------------------------------------
 Polarizable Continuum Model (PCM)
 =================================
 Model                : PCM.
 Atomic radii         : UFF (Universal Force Field).
 Polarization charges : Total charges.
 Charge compensation  : None.
 Solution method      : Matrix inversion.
 Cavity type          : Scaled VdW (van der Waals Surface) (Alpha=1.100).
 Cavity algorithm     : GePol (No added spheres)
                        Default sphere list used, NSphG=   21.
                        Lebedev-Laikov grids with approx.  5.0 points / Ang**2.
                        Smoothing algorithm: Karplus/York (Gamma=1.0000).
                        Polarization charges: spherical gaussians, with
                                              point-specific exponents (IZeta= 3).
                        Self-potential: point-specific (ISelfS= 7).
                        Self-field    : sphere-specific E.n sum rule (ISelfD= 2).
 Solvent              : Water, Eps=  78.355300 Eps(inf)=   1.777849
 ------------------------------------------------------------------------------
 One-electron integrals computed using PRISM.
 NBasis=   259 RedAO= T  NBF=   259
 NBsUse=   259 1.00D-06 NBFU=   259
 Harris functional with IExCor=  908 diagonalized for initial guess.
 ExpMin= 4.38D-02 ExpMax= 5.48D+03 ExpMxC= 8.25D+02 IAcc=2 IRadAn=         4 AccDes= 0.00D+00
 HarFok:  IExCor=  908 AccDes= 0.00D+00 IRadAn=         4 IDoV= 1
 ScaDFX=  1.000000  1.000000  1.000000  1.000000
 FoFCou: FMM=F IPFlag=           0 FMFlag=      100000 FMFlg1=           0
         NFxFlg=           0 DoJE=T BraDBF=F KetDBF=T FulRan=T
         Omega=  0.000000  0.000000  1.000000  0.000000  0.000000 ICntrl=     500 IOpCl=  0
         NMat0=    1 NMatS0=    1 NMatT0=    0 NMatD0=    1 NMtDS0=    0 NMtDT0=    0
         I1Cent=           4 NGrid=           0.
 Petite list used in FoFCou.
 Initial guess orbital symmetries:
       Occupied  (A) (A) (A) (A) (A) (A) (A) (A) (A) (A) (A) (A)
                 (A) (A) (A) (A) (A) (A) (A) (A) (A) (A) (A) (A)
                 (A) (A) (A) (A) (A) (A) (A) (A) (A) (A) (A) (A)
                 (A) (A) (A) (A) (A) (A) (A)
       Virtual   (A) (A) (A) (A) (A) (A) (A) (A) (A) (A) (A) (A)
                 (A) (A) (A) (A) (A) (A) (A) (A) (A) (A) (A) (A)
                 (A) (A) (A) (A) (A) (A) (A) (A) (A) (A) (A) (A)
                 (A) (A) (A) (A) (A) (A) (A) (A) (A) (A) (A) (A)
                 (A) (A) (A) (A) (A) (A) (A) (A) (A) (A) (A) (A)
                 (A) (A) (A) (A) (A) (A) (A) (A) (A) (A) (A) (A)
                 (A) (A) (A) (A) (A) (A) (A) (A) (A) (A) (A) (A)
                 (A) (A) (A) (A) (A) (A) (A) (A) (A) (A) (A) (A)
                 (A) (A) (A) (A) (A) (A) (A) (A) (A) (A) (A) (A)
                 (A) (A) (A) (A) (A) (A) (A) (A) (A) (A) (A) (A)
                 (A) (A) (A) (A) (A) (A) (A) (A) (A) (A) (A) (A)
                 (A) (A) (A) (A) (A) (A) (A) (A) (A) (A) (A) (A)
                 (A) (A) (A) (A) (A) (A) (A) (A) (A) (A) (A) (A)
                 (A) (A) (A) (A) (A) (A) (A) (A) (A) (A) (A) (A)
                 (A) (A) (A) (A) (A) (A) (A) (A) (A) (A) (A) (A)
                 (A) (A) (A) (A) (A) (A) (A) (A) (A) (A) (A) (A)
                 (A) (A) (A) (A) (A) (A) (A) (A) (A) (A) (A) (A)
                 (A) (A) (A) (A) (A) (A) (A) (A) (A) (A) (A) (A)
 The electronic state of the initial guess is 1-A.
 Requested convergence on RMS density matrix=1.00D-08 within 128 cycles.
 Requested convergence on MAX density matrix=1.00D-06.
 Requested convergence on             energy=1.00D-06.
 No special actions if energy rises.
 Error on total polarization charges =  0.01159
 SCF Done:  E(RmPW1PW91) =  -610.652622870     A.U. after   12 cycles
             Convg  =    0.5574D-08             -V/T =  2.0090
 Range of M.O.s used for correlation:     1   259
 NBasis=   259 NAE=    43 NBE=    43 NFC=     0 NFV=     0
 NROrb=    259 NOA=    43 NOB=    43 NVA=   216 NVB=   216

 **** Warning!!: The largest alpha MO coefficient is  0.51054412D+02

 NEqPCM:  Using equilibrium solvation (IEInf=0, Eps=  78.3553, EpsInf=   1.7778)
          Differentiating once with respect to magnetic field using GIAOs.
          Electric field/nuclear overlap derivatives assumed to be zero.
 FoFCou: FMM=F IPFlag=           0 FMFlag=    10101102 FMFlg1=           0
         NFxFlg=    40000000 DoJE=F BraDBF=F KetDBF=T FulRan=T
         Omega=  0.000000  0.000000  1.000000  0.000000  0.000000 ICntrl=    6100 IOpCl=  0
         NMat0=    1 NMatS0=    1 NMatT0=    0 NMatD0=    1 NMtDS0=    0 NMtDT0=    0
         I1Cent=           7 NGrid=        1534.
 Symmetry not used in FoFCou.
          There are     3 degrees of freedom in the 1st order CPHF.  IDoFFX=0.
      3 vectors produced by pass  0 Test12= 3.10D-13 3.33D-08 XBig12= 2.32D+01 8.54D-01.
 AX will form     3 AO Fock derivatives at one time.
      3 vectors produced by pass  1 Test12= 3.10D-13 3.33D-08 XBig12= 5.99D-02 4.09D-02.
      3 vectors produced by pass  2 Test12= 3.10D-13 3.33D-08 XBig12= 1.67D-04 2.76D-03.
      3 vectors produced by pass  3 Test12= 3.10D-13 3.33D-08 XBig12= 7.62D-07 1.48D-04.
      3 vectors produced by pass  4 Test12= 3.10D-13 3.33D-08 XBig12= 2.13D-09 6.30D-06.
      3 vectors produced by pass  5 Test12= 3.10D-13 3.33D-08 XBig12= 6.17D-12 3.48D-07.
 Inverted reduced A of dimension    18 with in-core refinement.
 Calculating GIAO nuclear magnetic shielding tensors.
 SCF GIAO Magnetic shielding tensor (ppm):
      1  C    Isotropic =   129.7072   Anisotropy =    68.1692
   XX=   113.4277   YX=    23.3671   ZX=   -10.9641
   XY=    25.5179   YY=   165.4712   ZY=     2.1985
   XZ=    -2.3500   YZ=     2.1597   ZZ=   110.2227
   Eigenvalues:    99.2801   114.6882   175.1533
      2  C    Isotropic =   119.0219   Anisotropy =    62.8871
   XX=   122.5884   YX=    29.0654   ZX=    13.9570
   XY=    17.4383   YY=   114.1024   ZY=    25.8106
   XZ=    16.8304   YZ=    22.6501   ZZ=   120.3750
   Eigenvalues:    89.9454   106.1738   160.9466
      3  C    Isotropic =    92.4248   Anisotropy =    27.9273
   XX=    69.3051   YX=    -9.6872   ZX=   -13.0077
   XY=     5.3898   YY=   104.2771   ZY=    -8.2379
   XZ=   -10.4570   YZ=    -3.3572   ZZ=   103.6922
   Eigenvalues:    65.3148   100.9167   111.0430
      4  C    Isotropic =   116.8119   Anisotropy =    13.7889
   XX=   123.7797   YX=    -1.0493   ZX=    -5.5874
   XY=    -2.7256   YY=   120.2140   ZY=     4.7173
   XZ=    -1.2267   YZ=     5.0058   ZZ=   106.4421
   Eigenvalues:   104.5178   119.9135   126.0045
      5  C    Isotropic =   118.5026   Anisotropy =    19.4506
   XX=   119.1387   YX=    -1.2379   ZX=     2.8798
   XY=     5.6043   YY=   124.2439   ZY=    -7.1564
   XZ=    -2.8169   YZ=   -15.8591   ZZ=   112.1253
   Eigenvalues:   105.0832   118.9550   131.4697
      6  C    Isotropic =   123.1821   Anisotropy =    35.5121
   XX=   126.7830   YX=    16.1336   ZX=    12.3172
   XY=     3.9448   YY=   123.1381   ZY=     7.4546
   XZ=    14.1327   YZ=    16.5337   ZZ=   119.6251
   Eigenvalues:   107.8825   114.8069   146.8568
      7  O    Isotropic =   232.8919   Anisotropy =    63.1487
   XX=   178.2562   YX=     5.8336   ZX=   -20.6618
   XY=    12.1059   YY=   249.8971   ZY=    -5.9652
   XZ=   -19.6252   YZ=    14.8584   ZZ=   270.5224
   Eigenvalues:   172.8310   250.8536   274.9910
      8  O    Isotropic =   267.3383   Anisotropy =    94.1563
   XX=   200.5347   YX=    34.8798   ZX=   -40.1735
   XY=    30.9400   YY=   285.3543   ZY=    17.1831
   XZ=   -42.0538   YZ=    -7.9844   ZZ=   316.1260
   Eigenvalues:   177.4450   294.4608   330.1092
      9  O    Isotropic =   301.5390   Anisotropy =    31.9181
   XX=   309.1703   YX=     0.4214   ZX=    15.4945
   XY=    -3.2696   YY=   293.0420   ZY=    -4.9143
   XZ=    17.7186   YZ=    13.3196   ZZ=   302.4047
   Eigenvalues:   286.2660   295.5333   322.8178
     10  O    Isotropic =   307.7763   Anisotropy =    39.9279
   XX=   292.1135   YX=    -9.5829   ZX=    -6.3358
   XY=   -28.9154   YY=   323.8531   ZY=    -5.8765
   XZ=   -35.8769   YZ=    -2.5087   ZZ=   307.3622
   Eigenvalues:   270.9265   318.0074   334.3949
     11  O    Isotropic =   300.1103   Anisotropy =    54.3378
   XX=   272.8720   YX=    22.7391   ZX=   -18.7440
   XY=    10.9161   YY=   298.2940   ZY=     5.5024
   XZ=   -22.6751   YZ=    -1.9650   ZZ=   329.1649
   Eigenvalues:   259.0700   304.9254   336.3355
     12  H    Isotropic =    27.6818   Anisotropy =    11.5473
   XX=    27.0192   YX=    -3.0871   ZX=    -3.0237
   XY=    -4.6449   YY=    32.5110   ZY=     2.7412
   XZ=    -2.1276   YZ=     1.7973   ZZ=    23.5153
   Eigenvalues:    22.1468    25.5186    35.3801
     13  H    Isotropic =    27.4155   Anisotropy =     6.0033
   XX=    26.8915   YX=     0.9569   ZX=     1.7284
   XY=     1.6764   YY=    26.4739   ZY=     3.6954
   XZ=    -0.1088   YZ=     2.4389   ZZ=    28.8811
   Eigenvalues:    24.2151    26.6137    31.4177
     14  H    Isotropic =    27.0370   Anisotropy =     7.6821
   XX=    25.2630   YX=     0.0277   ZX=     0.2998
   XY=     0.3387   YY=    31.3749   ZY=    -3.4374
   XZ=     0.8628   YZ=    -1.4703   ZZ=    24.4731
   Eigenvalues:    23.4811    25.4715    32.1584
     15  H    Isotropic =    26.2424   Anisotropy =     7.6442
   XX=    27.4415   YX=     2.9532   ZX=     2.2111
   XY=     2.9409   YY=    26.0314   ZY=     1.8939
   XZ=     2.8266   YZ=     1.7042   ZZ=    25.2542
   Eigenvalues:    23.5620    23.8266    31.3385
     16  H    Isotropic =    28.1219   Anisotropy =     5.6508
   XX=    30.4662   YX=    -2.4236   ZX=    -1.5932
   XY=    -2.2551   YY=    26.4183   ZY=     0.8749
   XZ=    -0.7118   YZ=     0.0871   ZZ=    27.4812
   Eigenvalues:    25.3479    27.1286    31.8891
     17  H    Isotropic =    28.2614   Anisotropy =     3.8637
   XX=    25.1320   YX=     0.1479   ZX=    -0.4248
   XY=    -0.3982   YY=    29.3779   ZY=     0.4494
   XZ=    -0.5820   YZ=     1.2663   ZZ=    30.2745
   Eigenvalues:    25.0827    28.8644    30.8372
     18  H    Isotropic =    27.6864   Anisotropy =     4.0933
   XX=    27.2300   YX=     1.5227   ZX=    -0.2142
   XY=     1.9070   YY=    25.5988   ZY=     0.5419
   XZ=    -1.1041   YZ=    -0.7003   ZZ=    30.2305
   Eigenvalues:    24.5010    28.1429    30.4153
     19  H    Isotropic =    29.1166   Anisotropy =    17.9224
   XX=    39.4819   YX=    -3.5918   ZX=     3.9600
   XY=    -3.4276   YY=    27.7940   ZY=     2.0061
   XZ=     4.1317   YZ=     0.6437   ZZ=    20.0738
   Eigenvalues:    18.8005    27.4844    41.0648
     20  H    Isotropic =    29.1825   Anisotropy =    18.8601
   XX=    27.6973   YX=    -4.6118   ZX=     0.0927
   XY=    -3.4739   YY=    36.7176   ZY=    -8.5957
   XZ=     1.1340   YZ=    -8.0308   ZZ=    23.1325
   Eigenvalues:    19.0155    26.7761    41.7559
     21  H    Isotropic =    30.1698   Anisotropy =    15.1230
   XX=    24.0752   YX=    -1.6597   ZX=    -5.7870
   XY=    -1.2374   YY=    28.5399   ZY=    -0.2963
   XZ=    -6.5165   YZ=     0.1096   ZZ=    37.8943
   Eigenvalues:    21.4614    28.7962    40.2518
 End of Minotr Frequency-dependent properties file   721 does not exist.
 End of Minotr Frequency-dependent properties file   722 does not exist.

 **********************************************************************

            Population analysis using the SCF density.

 **********************************************************************

 Orbital symmetries:
       Occupied  (A) (A) (A) (A) (A) (A) (A) (A) (A) (A) (A) (A)
                 (A) (A) (A) (A) (A) (A) (A) (A) (A) (A) (A) (A)
                 (A) (A) (A) (A) (A) (A) (A) (A) (A) (A) (A) (A)
                 (A) (A) (A) (A) (A) (A) (A)
       Virtual   (A) (A) (A) (A) (A) (A) (A) (A) (A) (A) (A) (A)
                 (A) (A) (A) (A) (A) (A) (A) (A) (A) (A) (A) (A)
                 (A) (A) (A) (A) (A) (A) (A) (A) (A) (A) (A) (A)
                 (A) (A) (A) (A) (A) (A) (A) (A) (A) (A) (A) (A)
                 (A) (A) (A) (A) (A) (A) (A) (A) (A) (A) (A) (A)
                 (A) (A) (A) (A) (A) (A) (A) (A) (A) (A) (A) (A)
                 (A) (A) (A) (A) (A) (A) (A) (A) (A) (A) (A) (A)
                 (A) (A) (A) (A) (A) (A) (A) (A) (A) (A) (A) (A)
                 (A) (A) (A) (A) (A) (A) (A) (A) (A) (A) (A) (A)
                 (A) (A) (A) (A) (A) (A) (A) (A) (A) (A) (A) (A)
                 (A) (A) (A) (A) (A) (A) (A) (A) (A) (A) (A) (A)
                 (A) (A) (A) (A) (A) (A) (A) (A) (A) (A) (A) (A)
                 (A) (A) (A) (A) (A) (A) (A) (A) (A) (A) (A) (A)
                 (A) (A) (A) (A) (A) (A) (A) (A) (A) (A) (A) (A)
                 (A) (A) (A) (A) (A) (A) (A) (A) (A) (A) (A) (A)
                 (A) (A) (A) (A) (A) (A) (A) (A) (A) (A) (A) (A)
                 (A) (A) (A) (A) (A) (A) (A) (A) (A) (A) (A) (A)
                 (A) (A) (A) (A) (A) (A) (A) (A) (A) (A) (A) (A)
 The electronic state is 1-A.
 Alpha  occ. eigenvalues --  -19.28223 -19.27332 -19.26861 -19.26743 -19.26558
 Alpha  occ. eigenvalues --  -10.36157 -10.32149 -10.31619 -10.31461 -10.31314
 Alpha  occ. eigenvalues --  -10.30858  -1.14652  -1.08561  -1.07357  -1.05865
 Alpha  occ. eigenvalues --   -1.04414  -0.82679  -0.81203  -0.70905  -0.68558
 Alpha  occ. eigenvalues --   -0.64744  -0.61709  -0.58058  -0.56214  -0.54490
 Alpha  occ. eigenvalues --   -0.51517  -0.50908  -0.49539  -0.47644  -0.46577
 Alpha  occ. eigenvalues --   -0.44389  -0.43657  -0.43254  -0.40123  -0.38735
 Alpha  occ. eigenvalues --   -0.38565  -0.37072  -0.36456  -0.33876  -0.31776
 Alpha  occ. eigenvalues --   -0.30812  -0.29974  -0.27798
 Alpha virt. eigenvalues --    0.00605   0.01257   0.01885   0.02561   0.04151
 Alpha virt. eigenvalues --    0.04559   0.04626   0.05408   0.05844   0.08336
 Alpha virt. eigenvalues --    0.08819   0.09535   0.10073   0.10611   0.11259
 Alpha virt. eigenvalues --    0.11511   0.12370   0.13513   0.14071   0.14409
 Alpha virt. eigenvalues --    0.14837   0.14983   0.16436   0.16636   0.17223
 Alpha virt. eigenvalues --    0.17871   0.18865   0.19798   0.20160   0.20700
 Alpha virt. eigenvalues --    0.21398   0.22149   0.22365   0.22978   0.24624
 Alpha virt. eigenvalues --    0.24858   0.24950   0.25418   0.26057   0.27557
 Alpha virt. eigenvalues --    0.27822   0.28457   0.28973   0.30276   0.30910
 Alpha virt. eigenvalues --    0.31276   0.31774   0.32342   0.32956   0.33501
 Alpha virt. eigenvalues --    0.34382   0.35104   0.35560   0.36844   0.37484
 Alpha virt. eigenvalues --    0.37770   0.38290   0.38819   0.39317   0.40639
 Alpha virt. eigenvalues --    0.40714   0.41552   0.42308   0.44502   0.45487
 Alpha virt. eigenvalues --    0.46967   0.64395   0.66071   0.66894   0.69684
 Alpha virt. eigenvalues --    0.70345   0.73787   0.74540   0.75997   0.78422
 Alpha virt. eigenvalues --    0.79063   0.81394   0.82097   0.82640   0.86663
 Alpha virt. eigenvalues --    0.88103   0.90896   0.96348   0.97196   1.00222
 Alpha virt. eigenvalues --    1.00914   1.03607   1.04641   1.05609   1.07194
 Alpha virt. eigenvalues --    1.08514   1.09253   1.10197   1.13520   1.14254
 Alpha virt. eigenvalues --    1.20192   1.21697   1.22151   1.25831   1.26043
 Alpha virt. eigenvalues --    1.27426   1.29253   1.31073   1.32300   1.33872
 Alpha virt. eigenvalues --    1.35603   1.37410   1.37742   1.39492   1.40623
 Alpha virt. eigenvalues --    1.42995   1.43900   1.46789   1.48250   1.51761
 Alpha virt. eigenvalues --    1.53268   1.54381   1.54710   1.57436   1.60062
 Alpha virt. eigenvalues --    1.60997   1.63712   1.64846   1.67425   1.67811
 Alpha virt. eigenvalues --    1.69091   1.73263   1.76397   1.77358   1.80745
 Alpha virt. eigenvalues --    1.81235   1.83933   1.84858   1.87204   1.87596
 Alpha virt. eigenvalues --    1.91325   1.92072   1.96387   1.97643   1.99292
 Alpha virt. eigenvalues --    2.00518   2.01410   2.04636   2.06183   2.07027
 Alpha virt. eigenvalues --    2.08484   2.10859   2.13794   2.16327   2.17400
 Alpha virt. eigenvalues --    2.19313   2.22476   2.24568   2.27268   2.28916
 Alpha virt. eigenvalues --    2.31962   2.35976   2.37324   2.39419   2.41324
 Alpha virt. eigenvalues --    2.44830   2.45884   2.49003   2.50522   2.51018
 Alpha virt. eigenvalues --    2.52681   2.54760   2.57906   2.59670   2.62421
 Alpha virt. eigenvalues --    2.64000   2.66820   2.67989   2.68402   2.69839
 Alpha virt. eigenvalues --    2.73952   2.76233   2.77542   2.79694   2.81881
 Alpha virt. eigenvalues --    2.82936   2.87374   2.88083   2.88469   2.91564
 Alpha virt. eigenvalues --    2.93008   2.96462   2.97220   3.02467   3.03426
 Alpha virt. eigenvalues --    3.06075   3.07526   3.10013   3.16341   3.23481
 Alpha virt. eigenvalues --    3.34501   3.37983   3.44555   3.46500   3.48880
 Alpha virt. eigenvalues --    3.52505   3.53685   3.54444   3.57826   3.60867
 Alpha virt. eigenvalues --    4.30251   4.36314   4.40085   4.43519   4.50220
 Alpha virt. eigenvalues --    4.59237   4.64241   4.72829   4.85857   4.91108
 Alpha virt. eigenvalues --    4.93018
          Condensed to atoms (all electrons):
              1          2          3          4          5          6
     1  C    5.693729  -0.458774  -0.377784  -0.205808   0.251076   0.133399
     2  C   -0.458774   7.249600  -0.271843   0.192011  -0.204452  -0.523693
     3  C   -0.377784  -0.271843   6.617503   0.061469  -0.828711   0.118522
     4  C   -0.205808   0.192011   0.061469   6.236568  -0.386898  -0.131236
     5  C    0.251076  -0.204452  -0.828711  -0.386898   6.880756  -0.253399
     6  C    0.133399  -0.523693   0.118522  -0.131236  -0.253399   6.212138
     7  O   -0.029214   0.089996   0.315123  -0.045054  -0.090160  -0.068967
     8  O    0.174709  -0.124902   0.326065   0.052116  -0.210671  -0.006682
     9  O    0.050051  -0.232624  -0.009356  -0.145613   0.058726   0.341701
    10  O   -0.002641   0.037779   0.032160   0.257721  -0.086601  -0.138598
    11  O    0.023765  -0.028256  -0.075082  -0.137646   0.306158   0.022283
    12  H    0.376076  -0.009108  -0.004871   0.006225  -0.004822   0.021750
    13  H    0.492681  -0.175399   0.014469  -0.037550   0.025490   0.024764
    14  H    0.010860   0.260435   0.003709   0.000354   0.007481   0.051836
    15  H    0.004494   0.031161   0.319957   0.022357   0.001216  -0.001918
    16  H    0.001440  -0.002112  -0.008888   0.439799  -0.028473  -0.083717
    17  H   -0.001550   0.002185  -0.076574  -0.051615   0.460008  -0.000502
    18  H    0.001132  -0.058381  -0.010526  -0.001000   0.032058   0.340355
    19  H   -0.009928   0.055414   0.000990  -0.034690   0.009808  -0.019610
    20  H    0.001563  -0.009973   0.007902   0.022292  -0.056026   0.034940
    21  H    0.002542  -0.000212  -0.053160  -0.039037   0.067348   0.005222
              7          8          9         10         11         12
     1  C   -0.029214   0.174709   0.050051  -0.002641   0.023765   0.376076
     2  C    0.089996  -0.124902  -0.232624   0.037779  -0.028256  -0.009108
     3  C    0.315123   0.326065  -0.009356   0.032160  -0.075082  -0.004871
     4  C   -0.045054   0.052116  -0.145613   0.257721  -0.137646   0.006225
     5  C   -0.090160  -0.210671   0.058726  -0.086601   0.306158  -0.004822
     6  C   -0.068967  -0.006682   0.341701  -0.138598   0.022283   0.021750
     7  O    8.225830  -0.044406   0.013496  -0.001919   0.008674  -0.004022
     8  O   -0.044406   8.338942  -0.004317  -0.002855  -0.003210  -0.049038
     9  O    0.013496  -0.004317   8.276103  -0.016928   0.000548  -0.002077
    10  O   -0.001919  -0.002855  -0.016928   8.296088  -0.007893  -0.000011
    11  O    0.008674  -0.003210   0.000548  -0.007893   8.228896  -0.000062
    12  H   -0.004022  -0.049038  -0.002077  -0.000011  -0.000062   0.527443
    13  H    0.013594  -0.044486   0.010092   0.000078   0.000174  -0.035292
    14  H   -0.028811   0.006974   0.002739  -0.000509   0.000078  -0.003117
    15  H   -0.045938  -0.044259  -0.000090  -0.000752   0.000564   0.000287
    16  H   -0.000250   0.002079  -0.000464  -0.051469  -0.011783   0.000010
    17  H    0.001399   0.009892  -0.000544  -0.003612  -0.059851   0.000018
    18  H    0.003062  -0.000471  -0.037736  -0.000134  -0.000308  -0.000123
    19  H   -0.000501   0.000015   0.234280   0.015467  -0.000046   0.000011
    20  H   -0.000038   0.000148   0.001501   0.240574   0.010416   0.000000
    21  H   -0.000115   0.019680  -0.000150  -0.001628   0.243704   0.000020
             13         14         15         16         17         18
     1  C    0.492681   0.010860   0.004494   0.001440  -0.001550   0.001132
     2  C   -0.175399   0.260435   0.031161  -0.002112   0.002185  -0.058381
     3  C    0.014469   0.003709   0.319957  -0.008888  -0.076574  -0.010526
     4  C   -0.037550   0.000354   0.022357   0.439799  -0.051615  -0.001000
     5  C    0.025490   0.007481   0.001216  -0.028473   0.460008   0.032058
     6  C    0.024764   0.051836  -0.001918  -0.083717  -0.000502   0.340355
     7  O    0.013594  -0.028811  -0.045938  -0.000250   0.001399   0.003062
     8  O   -0.044486   0.006974  -0.044259   0.002079   0.009892  -0.000471
     9  O    0.010092   0.002739  -0.000090  -0.000464  -0.000544  -0.037736
    10  O    0.000078  -0.000509  -0.000752  -0.051469  -0.003612  -0.000134
    11  O    0.000174   0.000078   0.000564  -0.011783  -0.059851  -0.000308
    12  H   -0.035292  -0.003117   0.000287   0.000010   0.000018  -0.000123
    13  H    0.518458   0.002430  -0.000239   0.001725  -0.000022   0.000242
    14  H    0.002430   0.493339   0.000007  -0.000145  -0.000036  -0.006162
    15  H   -0.000239   0.000007   0.525227  -0.000298  -0.002737  -0.000112
    16  H    0.001725  -0.000145  -0.000298   0.547528   0.003873   0.004524
    17  H   -0.000022  -0.000036  -0.002737   0.003873   0.515585   0.001058
    18  H    0.000242  -0.006162  -0.000112   0.004524   0.001058   0.553084
    19  H   -0.000156  -0.000133   0.000000  -0.001346   0.000005  -0.004425
    20  H    0.000002   0.000003   0.000002  -0.005341  -0.000210   0.000055
    21  H   -0.000095  -0.000001  -0.000435   0.004218   0.006740   0.000002
             19         20         21
     1  C   -0.009928   0.001563   0.002542
     2  C    0.055414  -0.009973  -0.000212
     3  C    0.000990   0.007902  -0.053160
     4  C   -0.034690   0.022292  -0.039037
     5  C    0.009808  -0.056026   0.067348
     6  C   -0.019610   0.034940   0.005222
     7  O   -0.000501  -0.000038  -0.000115
     8  O    0.000015   0.000148   0.019680
     9  O    0.234280   0.001501  -0.000150
    10  O    0.015467   0.240574  -0.001628
    11  O   -0.000046   0.010416   0.243704
    12  H    0.000011   0.000000   0.000020
    13  H   -0.000156   0.000002  -0.000095
    14  H   -0.000133   0.000003  -0.000001
    15  H    0.000000   0.000002  -0.000435
    16  H   -0.001346  -0.005341   0.004218
    17  H    0.000005  -0.000210   0.006740
    18  H   -0.004425   0.000055   0.000002
    19  H    0.368752  -0.000768   0.000000
    20  H   -0.000768   0.360620  -0.000012
    21  H    0.000000  -0.000012   0.366997
 Mulliken atomic charges:
              1
     1  C   -0.131820
     2  C    0.181148
     3  C   -0.101074
     4  C   -0.074763
     5  C    0.050088
     6  C   -0.078586
     7  O   -0.311779
     8  O   -0.395325
     9  O   -0.539337
    10  O   -0.564318
    11  O   -0.521123
    12  H    0.180703
    13  H    0.189043
    14  H    0.198671
    15  H    0.191507
    16  H    0.189088
    17  H    0.196489
    18  H    0.183806
    19  H    0.386864
    20  H    0.392347
    21  H    0.378371
 Sum of Mulliken atomic charges =   0.00000
 Mulliken charges with hydrogens summed into heavy atoms:
              1
     1  C    0.237926
     2  C    0.379819
     3  C    0.090433
     4  C    0.114326
     5  C    0.246577
     6  C    0.105220
     7  O   -0.311779
     8  O   -0.395325
     9  O   -0.152473
    10  O   -0.171971
    11  O   -0.142752
 Sum of Mulliken charges with hydrogens summed into heavy atoms =   0.00000
 Electronic spatial extent (au):  <R**2>=           1459.8404
 Charge=              0.0000 electrons
 Dipole moment (field-independent basis, Debye):
    X=             -0.4730    Y=             -0.2804    Z=             -1.5076  Tot=              1.6047
 Quadrupole moment (field-independent basis, Debye-Ang):
   XX=            -66.4681   YY=            -67.7688   ZZ=            -63.8129
   XY=             -3.5728   XZ=              1.6506   YZ=             -1.7430
 Traceless Quadrupole moment (field-independent basis, Debye-Ang):
   XX=             -0.4515   YY=             -1.7522   ZZ=              2.2037
   XY=             -3.5728   XZ=              1.6506   YZ=             -1.7430
 Octapole moment (field-independent basis, Debye-Ang**2):
  XXX=            -13.5118  YYY=            -10.9167  ZZZ=             -9.6356  XYY=              4.4390
  XXY=              5.7579  XXZ=             -5.9004  XZZ=             -5.4705  YZZ=              8.4309
  YYZ=             -3.5615  XYZ=              9.0009
 Hexadecapole moment (field-independent basis, Debye-Ang**3):
 XXXX=           -742.3220 YYYY=           -837.7482 ZZZZ=           -250.2807 XXXY=             15.2275
 XXXZ=             37.6275 YYYX=            -64.5304 YYYZ=            -25.1421 ZZZX=             -5.6146
 ZZZY=             -5.5125 XXYY=           -235.7016 XXZZ=           -176.9051 YYZZ=           -149.8479
 XXYZ=             -1.2851 YYXZ=             -4.4878 ZZXY=              6.6796
 N-N= 7.232746132069D+02 E-N=-2.876177961286D+03  KE= 6.052170979229D+02
 1\1\GINC-COMPUTE-8-20\SP\RmPW1PW91\6-31+G(d,p)\C6H10O5\MMARCARINO.IQUI
 R\12-Apr-2019\0\\# mpw1pw91/6-31+g** nmr scrf=(pcm,solvent=water)\\com
 ment\\0,1\C,0,-1.172328,1.337583,-0.933941\C,0,-0.431819,1.48945,0.402
 823\C,0,-1.445874,-0.485653,0.453202\C,0,0.987183,-0.504747,-0.160309\
 C,0,-0.171446,-1.343695,0.408328\C,0,0.995729,0.924141,0.393937\O,0,-1
 .222846,0.650251,1.264188\O,0,-1.736801,0.008678,-0.858333\O,0,1.82347
 ,1.776701,-0.387294\O,0,2.265321,-1.073222,0.112452\O,0,-0.360965,-2.5
 34011,-0.350483\H,0,-1.985199,2.06449,-1.029671\H,0,-0.509733,1.415336
 ,-1.800134\H,0,-0.448498,2.50714,0.796174\H,0,-2.308021,-1.041348,0.83
 0479\H,0,0.841878,-0.435388,-1.248754\H,0,0.072437,-1.666491,1.425439\
 H,0,1.345776,0.892256,1.43663\H,0,2.676924,1.319727,-0.477239\H,0,2.29
 5593,-1.932198,-0.340446\H,0,-0.695265,-2.253166,-1.220957\\Version=EM
 64L-G09RevC.01\State=1-A\HF=-610.6526229\RMSD=5.574e-09\Dipole=0.18607
 84,0.1103341,-0.5931169\Quadrupole=-0.3355954,-1.3027768,1.6383722,-2.
 6562904,-1.2271957,1.2958832\PG=C01 [X(C6H10O5)]\\@


 LOGIC IS A SYSTEMATIC METHOD OF COMING TO THE
 WRONG CONCLUSION WITH CONFIDENCE.
 Job cpu time:  0 days  0 hours 20 minutes  2.2 seconds.
 File lengths (MBytes):  RWF=     83 Int=      0 D2E=      0 Chk=      5 Scr=      1
 Normal termination of Gaussian 09 at Fri Apr 12 12:15:41 2019.
