 Entering Gaussian System, Link 0=g09
 Input=/home/asarotti.iquir/SCF3/07_SRS_Levo07_OPTB_energy_b3lyp_smd.gjc
 Output=/home/asarotti.iquir/SCF3/07_SRS_Levo07_OPTB_energy_b3lyp_smd.log
 Initial command:
 /share/apps/Gaussian09/EM64T.SSE4.2-enabled/g09/l1.exe /tmp/Gau-28735.inp -scrdir=/tmp/
 Entering Link 1 = /share/apps/Gaussian09/EM64T.SSE4.2-enabled/g09/l1.exe PID=     28736.
  
 Copyright (c) 1988,1990,1992,1993,1995,1998,2003,2009,2011,
            Gaussian, Inc.  All Rights Reserved.
  
 This is part of the Gaussian(R) 09 program.  It is based on
 the Gaussian(R) 03 system (copyright 2003, Gaussian, Inc.),
 the Gaussian(R) 98 system (copyright 1998, Gaussian, Inc.),
 the Gaussian(R) 94 system (copyright 1995, Gaussian, Inc.),
 the Gaussian 92(TM) system (copyright 1992, Gaussian, Inc.),
 the Gaussian 90(TM) system (copyright 1990, Gaussian, Inc.),
 the Gaussian 88(TM) system (copyright 1988, Gaussian, Inc.),
 the Gaussian 86(TM) system (copyright 1986, Carnegie Mellon
 University), and the Gaussian 82(TM) system (copyright 1983,
 Carnegie Mellon University). Gaussian is a federally registered
 trademark of Gaussian, Inc.
  
 This software contains proprietary and confidential information,
 including trade secrets, belonging to Gaussian, Inc.
  
 This software is provided under written license and may be
 used, copied, transmitted, or stored only in accord with that
 written license.
  
 The following legend is applicable only to US Government
 contracts under FAR:
  
                    RESTRICTED RIGHTS LEGEND
  
 Use, reproduction and disclosure by the US Government is
 subject to restrictions as set forth in subparagraphs (a)
 and (c) of the Commercial Computer Software - Restricted
 Rights clause in FAR 52.227-19.
  
 Gaussian, Inc.
 340 Quinnipiac St., Bldg. 40, Wallingford CT 06492
  
  
 ---------------------------------------------------------------
 Warning -- This program may not be used in any manner that
 competes with the business of Gaussian, Inc. or will provide
 assistance to any competitor of Gaussian, Inc.  The licensee
 of this program is prohibited from giving any competitor of
 Gaussian, Inc. access to this program.  By using this program,
 the user acknowledges that Gaussian, Inc. is engaged in the
 business of creating and licensing software in the field of
 computational chemistry and represents and warrants to the
 licensee that it is not a competitor of Gaussian, Inc. and that
 it will not use this program in any manner prohibited above.
 ---------------------------------------------------------------
  

 Cite this work as:
 Gaussian 09, Revision C.01,
 M. J. Frisch, G. W. Trucks, H. B. Schlegel, G. E. Scuseria, 
 M. A. Robb, J. R. Cheeseman, G. Scalmani, V. Barone, B. Mennucci, 
 G. A. Petersson, H. Nakatsuji, M. Caricato, X. Li, H. P. Hratchian, 
 A. F. Izmaylov, J. Bloino, G. Zheng, J. L. Sonnenberg, M. Hada, 
 M. Ehara, K. Toyota, R. Fukuda, J. Hasegawa, M. Ishida, T. Nakajima, 
 Y. Honda, O. Kitao, H. Nakai, T. Vreven, J. A. Montgomery, Jr., 
 J. E. Peralta, F. Ogliaro, M. Bearpark, J. J. Heyd, E. Brothers, 
 K. N. Kudin, V. N. Staroverov, T. Keith, R. Kobayashi, J. Normand, 
 K. Raghavachari, A. Rendell, J. C. Burant, S. S. Iyengar, J. Tomasi, 
 M. Cossi, N. Rega, J. M. Millam, M. Klene, J. E. Knox, J. B. Cross, 
 V. Bakken, C. Adamo, J. Jaramillo, R. Gomperts, R. E. Stratmann, 
 O. Yazyev, A. J. Austin, R. Cammi, C. Pomelli, J. W. Ochterski, 
 R. L. Martin, K. Morokuma, V. G. Zakrzewski, G. A. Voth, 
 P. Salvador, J. J. Dannenberg, S. Dapprich, A. D. Daniels, 
 O. Farkas, J. B. Foresman, J. V. Ortiz, J. Cioslowski, 
 and D. J. Fox, Gaussian, Inc., Wallingford CT, 2010.
 
 ******************************************
 Gaussian 09:  EM64L-G09RevC.01 23-Sep-2011
                15-Apr-2019 
 ******************************************
 %nprocshared=4
 Will use up to    4 processors via shared memory.
 -----------------------------------------------------------
 # B3LYP/6-31+G** test scrf=(pcm,solvent=water,smd,dovacuum)
 -----------------------------------------------------------
 1/38=1/1;
 2/12=2,17=6,18=5,40=1/2;
 3/5=1,6=6,7=111,11=2,16=1,25=1,30=1,70=32101,72=1,74=-5/1,2,3;
 4//1;
 5/5=2,38=5,53=1/2;
 6/7=2,8=2,9=2,10=2,28=1/1;
 99/5=1,9=1/99;
 -------
 comment
 -------
 Charge =  0 Multiplicity = 1
 Symbolic Z-Matrix:
 6                     0.66278  -1.65764  -0.92028 
 6                    -0.10445  -1.5418    0.40352 
 6                     1.51295  -0.02713   0.47282 
 6                    -0.75847   0.83677  -0.16744 
 6                     0.62061   1.2229    0.39215 
 6                    -1.24951  -0.5137    0.37403 
 8                     0.91159  -1.01597   1.28 
 8                     1.64255  -0.599    -0.83467 
 8                    -2.33088  -0.90712  -0.46982 
 8                    -1.68724   1.87347   0.12705 
 8                     1.25174   2.23286  -0.38483 
 1                     0.02453  -1.5105   -1.79608 
 1                     1.18236  -2.6175   -1.00537 
 1                    -0.43757  -2.50345   0.79947 
 1                     2.50603   0.20943   0.86266 
 1                    -0.65559   0.73138  -1.25883 
 1                     0.50093   1.63886   1.39782 
 1                    -1.59421  -0.36879   1.40649 
 1                    -2.85986  -1.5703    0.00186 
 1                    -2.53903   1.57975  -0.23842 
 1                     1.46687   1.82083  -1.2403 
 
                          Input orientation:                          
 ---------------------------------------------------------------------
 Center     Atomic      Atomic             Coordinates (Angstroms)
 Number     Number       Type             X           Y           Z
 ---------------------------------------------------------------------
      1          6           0        0.662776   -1.657637   -0.920276
      2          6           0       -0.104446   -1.541798    0.403524
      3          6           0        1.512945   -0.027127    0.472821
      4          6           0       -0.758471    0.836767   -0.167439
      5          6           0        0.620610    1.222902    0.392150
      6          6           0       -1.249506   -0.513704    0.374026
      7          8           0        0.911589   -1.015966    1.280002
      8          8           0        1.642552   -0.599004   -0.834671
      9          8           0       -2.330879   -0.907119   -0.469823
     10          8           0       -1.687240    1.873467    0.127049
     11          8           0        1.251738    2.232857   -0.384825
     12          1           0        0.024533   -1.510499   -1.796076
     13          1           0        1.182361   -2.617500   -1.005370
     14          1           0       -0.437565   -2.503451    0.799467
     15          1           0        2.506026    0.209427    0.862663
     16          1           0       -0.655589    0.731382   -1.258832
     17          1           0        0.500927    1.638855    1.397815
     18          1           0       -1.594208   -0.368786    1.406491
     19          1           0       -2.859857   -1.570300    0.001861
     20          1           0       -2.539027    1.579752   -0.238424
     21          1           0        1.466874    1.820832   -1.240301
 ---------------------------------------------------------------------
                    Distance matrix (angstroms):
                    1          2          3          4          5
     1  C    0.000000
     2  C    1.534436   0.000000
     3  C    2.306961   2.216976   0.000000
     4  C    2.967955   2.532058   2.513081   0.000000
     5  C    3.165714   2.858217   1.537967   1.537564   0.000000
     6  C    2.576941   1.539159   2.806716   1.535601   2.552149
     7  O    2.305401   1.441194   1.411018   2.883887   2.426001
     8  O    1.444989   2.339656   1.432961   2.876030   2.422560
     9  O    3.118999   2.474380   4.054374   2.367497   3.740491
    10  O    4.369000   3.774349   3.738048   1.422702   2.412402
    11  O    3.971086   4.087634   2.431319   2.457084   1.421978
    12  H    1.093631   2.203601   3.092516   2.962298   3.551777
    13  H    1.094782   2.190431   3.000728   4.049805   4.125205
    14  H    2.209902   1.092024   3.169127   3.492126   3.895041
    15  H    3.172124   3.176816   1.092769   3.480173   2.191645
    16  H    2.749567   2.869588   2.876890   1.101285   2.143832
    17  H    4.033187   3.386982   2.157612   2.163203   1.094853
    18  H    3.488403   2.145062   3.262341   2.151527   2.909945
    19  H    3.642377   2.784679   4.660964   3.199759   4.479727
    20  H    4.604037   4.010406   4.416606   1.930659   3.241646
    21  H    3.584513   4.059370   2.520290   2.659244   1.933541
                    6          7          8          9         10
     6  C    0.000000
     7  O    2.396537   0.000000
     8  O    3.135638   2.275963   0.000000
     9  O    1.426963   3.686100   4.002025   0.000000
    10  O    2.439507   4.053645   4.257409   2.915851   0.000000
    11  O    3.791527   3.666361   2.893879   4.764643   3.004791
    12  H    2.706680   3.239396   2.091198   2.769653   4.252035
    13  H    3.498952   2.803775   2.077316   3.943992   5.448465
    14  H    2.190740   2.064883   3.259480   2.782806   4.601222
    15  H    3.855607   2.053774   2.068838   5.139829   4.570956
    16  H    2.137569   3.457593   2.689106   2.472613   2.071069
    17  H    2.957308   2.688977   3.360850   4.241365   2.541252
    18  H    1.098091   2.591112   3.943656   2.086394   2.583278
    19  H    1.961666   4.020539   4.681334   0.970625   3.640087
    20  H    2.533874   4.577130   4.752693   2.506272   0.972307
    21  H    3.928719   3.835061   2.459879   4.739017   3.438147
                   11         12         13         14         15
    11  O    0.000000
    12  H    4.184540   0.000000
    13  H    4.890384   1.786402   0.000000
    14  H    5.166131   2.817150   2.427881   0.000000
    15  H    2.687700   4.023039   3.637740   4.003552   0.000000
    16  H    2.579964   2.403586   3.828487   3.840348   3.843044
    17  H    2.023453   4.510690   4.935201   4.289229   2.519935
    18  H    4.251678   3.765669   4.310815   2.502618   4.176362
    19  H    5.614156   3.399391   4.295424   2.715593   5.718488
    20  H    3.849400   4.306712   5.661613   4.708068   5.342541
    21  H    0.973595   3.672465   4.453642   5.146549   2.845860
                   16         17         18         19         20
    16  H    0.000000
    17  H    3.036249   0.000000
    18  H    3.032379   2.901773   0.000000
    19  H    3.427227   4.852034   2.240198   0.000000
    20  H    2.303975   3.452838   2.719417   3.175452   0.000000
    21  H    2.385811   2.815284   4.601104   5.635898   4.136317
                   21
    21  H    0.000000
 Stoichiometry    C6H10O5
 Framework group  C1[X(C6H10O5)]
 Deg. of freedom    57
 Full point group                 C1      NOp   1
 Largest Abelian subgroup         C1      NOp   1
 Largest concise Abelian subgroup C1      NOp   1
                         Standard orientation:                         
 ---------------------------------------------------------------------
 Center     Atomic      Atomic             Coordinates (Angstroms)
 Number     Number       Type             X           Y           Z
 ---------------------------------------------------------------------
      1          6           0        0.662774   -1.657638   -0.920276
      2          6           0       -0.104448   -1.541798    0.403524
      3          6           0        1.512945   -0.027129    0.472821
      4          6           0       -0.758470    0.836768   -0.167439
      5          6           0        0.620611    1.222901    0.392150
      6          6           0       -1.249507   -0.513703    0.374026
      7          8           0        0.911588   -1.015967    1.280002
      8          8           0        1.642551   -0.599006   -0.834671
      9          8           0       -2.330880   -0.907117   -0.469823
     10          8           0       -1.687238    1.873469    0.127049
     11          8           0        1.251740    2.232856   -0.384825
     12          1           0        0.024531   -1.510499   -1.796076
     13          1           0        1.182358   -2.617501   -1.005370
     14          1           0       -0.437568   -2.503451    0.799467
     15          1           0        2.506026    0.209424    0.862663
     16          1           0       -0.655588    0.731383   -1.258832
     17          1           0        0.500929    1.638854    1.397815
     18          1           0       -1.594208   -0.368785    1.406491
     19          1           0       -2.859859   -1.570297    0.001861
     20          1           0       -2.539025    1.579754   -0.238424
     21          1           0        1.466876    1.820830   -1.240301
 ---------------------------------------------------------------------
 Rotational constants (GHZ):      1.3879101      1.3281130      0.8497860
 Standard basis: 6-31+G(d,p) (6D, 7F)
 There are   259 symmetry adapted basis functions of A   symmetry.
 Integral buffers will be    131072 words long.
 Raffenetti 2 integral format.
 Two-electron integral symmetry is turned on.
   259 basis functions,   422 primitive gaussians,   259 cartesian basis functions
    43 alpha electrons       43 beta electrons
       nuclear repulsion energy       722.7530022126 Hartrees.
 NAtoms=   21 NActive=   21 NUniq=   21 SFac= 1.00D+00 NAtFMM=   60 NAOKFM=F Big=F
 ------------------------------------------------------------------------------
 Polarizable Continuum Model (PCM)
 =================================
 Model                : C-PCM.
 Atomic radii         : SMD-Coulomb.
 Polarization charges : Total charges.
 Charge compensation  : None.
 Solution method      : Matrix inversion.
 Cavity type          : VdW (van der Waals Surface) (Alpha=1.000).
 Cavity algorithm     : GePol (No added spheres)
                        Default sphere list used, NSphG=   21.
                        Lebedev-Laikov grids with approx.  5.0 points / Ang**2.
                        Smoothing algorithm: Karplus/York (Gamma=1.0000).
                        Polarization charges: spherical gaussians, with
                                              point-specific exponents (IZeta= 3).
                        Self-potential: point-specific (ISelfS= 7).
                        Self-field    : sphere-specific E.n sum rule (ISelfD= 2).
 Solvent              : Water, Eps=  78.355300 Eps(inf)=   1.777849
 ------------------------------------------------------------------------------
 ------------------------------------------------------------------------------
 Atomic radii for non-electrostatic terms: SMD-CDS.
 ------------------------------------------------------------------------------
 Nuclear repulsion after PCM non-electrostatic terms =      722.7580595238 Hartrees.
 One-electron integrals computed using PRISM.
 NBasis=   259 RedAO= T  NBF=   259
 NBsUse=   259 1.00D-06 NBFU=   259
 Harris functional with IExCor=  402 diagonalized for initial guess.
 ExpMin= 4.38D-02 ExpMax= 5.48D+03 ExpMxC= 8.25D+02 IAcc=2 IRadAn=         4 AccDes= 0.00D+00
 HarFok:  IExCor=  402 AccDes= 0.00D+00 IRadAn=         4 IDoV= 1
 ScaDFX=  1.000000  1.000000  1.000000  1.000000
 FoFCou: FMM=F IPFlag=           0 FMFlag=      100000 FMFlg1=           0
         NFxFlg=           0 DoJE=T BraDBF=F KetDBF=T FulRan=T
         Omega=  0.000000  0.000000  1.000000  0.000000  0.000000 ICntrl=     500 IOpCl=  0
         NMat0=    1 NMatS0=    1 NMatT0=    0 NMatD0=    1 NMtDS0=    0 NMtDT0=    0
         I1Cent=           4 NGrid=           0.
 Petite list used in FoFCou.
 Initial guess orbital symmetries:
       Occupied  (A) (A) (A) (A) (A) (A) (A) (A) (A) (A) (A) (A)
                 (A) (A) (A) (A) (A) (A) (A) (A) (A) (A) (A) (A)
                 (A) (A) (A) (A) (A) (A) (A) (A) (A) (A) (A) (A)
                 (A) (A) (A) (A) (A) (A) (A)
       Virtual   (A) (A) (A) (A) (A) (A) (A) (A) (A) (A) (A) (A)
                 (A) (A) (A) (A) (A) (A) (A) (A) (A) (A) (A) (A)
                 (A) (A) (A) (A) (A) (A) (A) (A) (A) (A) (A) (A)
                 (A) (A) (A) (A) (A) (A) (A) (A) (A) (A) (A) (A)
                 (A) (A) (A) (A) (A) (A) (A) (A) (A) (A) (A) (A)
                 (A) (A) (A) (A) (A) (A) (A) (A) (A) (A) (A) (A)
                 (A) (A) (A) (A) (A) (A) (A) (A) (A) (A) (A) (A)
                 (A) (A) (A) (A) (A) (A) (A) (A) (A) (A) (A) (A)
                 (A) (A) (A) (A) (A) (A) (A) (A) (A) (A) (A) (A)
                 (A) (A) (A) (A) (A) (A) (A) (A) (A) (A) (A) (A)
                 (A) (A) (A) (A) (A) (A) (A) (A) (A) (A) (A) (A)
                 (A) (A) (A) (A) (A) (A) (A) (A) (A) (A) (A) (A)
                 (A) (A) (A) (A) (A) (A) (A) (A) (A) (A) (A) (A)
                 (A) (A) (A) (A) (A) (A) (A) (A) (A) (A) (A) (A)
                 (A) (A) (A) (A) (A) (A) (A) (A) (A) (A) (A) (A)
                 (A) (A) (A) (A) (A) (A) (A) (A) (A) (A) (A) (A)
                 (A) (A) (A) (A) (A) (A) (A) (A) (A) (A) (A) (A)
                 (A) (A) (A) (A) (A) (A) (A) (A) (A) (A) (A) (A)
 The electronic state of the initial guess is 1-A.
 Requested convergence on RMS density matrix=1.00D-08 within 128 cycles.
 Requested convergence on MAX density matrix=1.00D-06.
 Requested convergence on             energy=1.00D-06.
 No special actions if energy rises.
 Error on total polarization charges =  0.05812
 SCF Done:  E(RB3LYP) =  -610.811796424     A.U. after   12 cycles
             Convg  =    0.4815D-08             -V/T =  2.0090
 SMD-CDS (non-electrostatic) energy       (kcal/mol) =       3.17
 (included in total energy above)

 **********************************************************************

            Population analysis using the SCF density.

 **********************************************************************

 Orbital symmetries:
       Occupied  (A) (A) (A) (A) (A) (A) (A) (A) (A) (A) (A) (A)
                 (A) (A) (A) (A) (A) (A) (A) (A) (A) (A) (A) (A)
                 (A) (A) (A) (A) (A) (A) (A) (A) (A) (A) (A) (A)
                 (A) (A) (A) (A) (A) (A) (A)
       Virtual   (A) (A) (A) (A) (A) (A) (A) (A) (A) (A) (A) (A)
                 (A) (A) (A) (A) (A) (A) (A) (A) (A) (A) (A) (A)
                 (A) (A) (A) (A) (A) (A) (A) (A) (A) (A) (A) (A)
                 (A) (A) (A) (A) (A) (A) (A) (A) (A) (A) (A) (A)
                 (A) (A) (A) (A) (A) (A) (A) (A) (A) (A) (A) (A)
                 (A) (A) (A) (A) (A) (A) (A) (A) (A) (A) (A) (A)
                 (A) (A) (A) (A) (A) (A) (A) (A) (A) (A) (A) (A)
                 (A) (A) (A) (A) (A) (A) (A) (A) (A) (A) (A) (A)
                 (A) (A) (A) (A) (A) (A) (A) (A) (A) (A) (A) (A)
                 (A) (A) (A) (A) (A) (A) (A) (A) (A) (A) (A) (A)
                 (A) (A) (A) (A) (A) (A) (A) (A) (A) (A) (A) (A)
                 (A) (A) (A) (A) (A) (A) (A) (A) (A) (A) (A) (A)
                 (A) (A) (A) (A) (A) (A) (A) (A) (A) (A) (A) (A)
                 (A) (A) (A) (A) (A) (A) (A) (A) (A) (A) (A) (A)
                 (A) (A) (A) (A) (A) (A) (A) (A) (A) (A) (A) (A)
                 (A) (A) (A) (A) (A) (A) (A) (A) (A) (A) (A) (A)
                 (A) (A) (A) (A) (A) (A) (A) (A) (A) (A) (A) (A)
                 (A) (A) (A) (A) (A) (A) (A) (A) (A) (A) (A) (A)
 The electronic state is 1-A.
 Alpha  occ. eigenvalues --  -19.18688 -19.17695 -19.17358 -19.17186 -19.16905
 Alpha  occ. eigenvalues --  -10.29475 -10.25076 -10.24720 -10.24660 -10.24537
 Alpha  occ. eigenvalues --  -10.23974  -1.11281  -1.05106  -1.04063  -1.02573
 Alpha  occ. eigenvalues --   -1.01283  -0.79400  -0.78207  -0.68187  -0.65473
 Alpha  occ. eigenvalues --   -0.62645  -0.59060  -0.55268  -0.54280  -0.52296
 Alpha  occ. eigenvalues --   -0.49642  -0.48754  -0.46419  -0.46256  -0.44464
 Alpha  occ. eigenvalues --   -0.42451  -0.41388  -0.40495  -0.38566  -0.38095
 Alpha  occ. eigenvalues --   -0.36533  -0.35759  -0.34414  -0.31873  -0.30305
 Alpha  occ. eigenvalues --   -0.29244  -0.27930  -0.26565
 Alpha virt. eigenvalues --    0.00832   0.01412   0.01824   0.02835   0.04005
 Alpha virt. eigenvalues --    0.04720   0.05068   0.05575   0.05964   0.08445
 Alpha virt. eigenvalues --    0.09053   0.09790   0.10051   0.10777   0.11520
 Alpha virt. eigenvalues --    0.11783   0.12553   0.13986   0.14377   0.14440
 Alpha virt. eigenvalues --    0.15206   0.15318   0.16084   0.16697   0.17072
 Alpha virt. eigenvalues --    0.17931   0.19107   0.19598   0.20182   0.20612
 Alpha virt. eigenvalues --    0.21101   0.22146   0.22263   0.22795   0.24013
 Alpha virt. eigenvalues --    0.24273   0.24696   0.25573   0.25814   0.27136
 Alpha virt. eigenvalues --    0.27395   0.27748   0.28996   0.29815   0.30174
 Alpha virt. eigenvalues --    0.30638   0.31401   0.31895   0.32674   0.33146
 Alpha virt. eigenvalues --    0.33666   0.34510   0.34780   0.35409   0.36321
 Alpha virt. eigenvalues --    0.37221   0.38022   0.38545   0.38945   0.39797
 Alpha virt. eigenvalues --    0.40016   0.41479   0.42616   0.43347   0.45201
 Alpha virt. eigenvalues --    0.45766   0.63245   0.65692   0.65892   0.68692
 Alpha virt. eigenvalues --    0.70724   0.72630   0.73796   0.75730   0.77081
 Alpha virt. eigenvalues --    0.78399   0.80294   0.80952   0.82380   0.86256
 Alpha virt. eigenvalues --    0.87171   0.91035   0.95230   0.95989   0.98104
 Alpha virt. eigenvalues --    0.99893   1.02705   1.04206   1.04876   1.06791
 Alpha virt. eigenvalues --    1.07304   1.08295   1.10727   1.12215   1.13296
 Alpha virt. eigenvalues --    1.18470   1.20161   1.21653   1.24538   1.25404
 Alpha virt. eigenvalues --    1.26966   1.28210   1.29143   1.30862   1.31382
 Alpha virt. eigenvalues --    1.34329   1.35402   1.37114   1.38697   1.39561
 Alpha virt. eigenvalues --    1.41277   1.42947   1.44719   1.48185   1.50485
 Alpha virt. eigenvalues --    1.52320   1.53583   1.55664   1.56570   1.57972
 Alpha virt. eigenvalues --    1.61757   1.63262   1.64392   1.66211   1.67386
 Alpha virt. eigenvalues --    1.68784   1.73827   1.74466   1.75752   1.79519
 Alpha virt. eigenvalues --    1.80295   1.81904   1.84398   1.86070   1.87274
 Alpha virt. eigenvalues --    1.90324   1.92121   1.93740   1.97468   1.98771
 Alpha virt. eigenvalues --    2.00103   2.01003   2.03861   2.06313   2.08480
 Alpha virt. eigenvalues --    2.08839   2.11209   2.11777   2.14126   2.17431
 Alpha virt. eigenvalues --    2.18516   2.21878   2.22619   2.24736   2.28521
 Alpha virt. eigenvalues --    2.31451   2.36126   2.36728   2.38927   2.41625
 Alpha virt. eigenvalues --    2.42407   2.45037   2.47667   2.48538   2.50790
 Alpha virt. eigenvalues --    2.53075   2.57774   2.59173   2.60557   2.61476
 Alpha virt. eigenvalues --    2.63450   2.65417   2.67558   2.68898   2.70783
 Alpha virt. eigenvalues --    2.71814   2.74978   2.76754   2.78301   2.80370
 Alpha virt. eigenvalues --    2.83544   2.85442   2.87325   2.87983   2.91393
 Alpha virt. eigenvalues --    2.93135   2.95945   2.96054   2.96847   3.02409
 Alpha virt. eigenvalues --    3.05183   3.08551   3.10089   3.14831   3.23010
 Alpha virt. eigenvalues --    3.33161   3.37256   3.42998   3.46022   3.48524
 Alpha virt. eigenvalues --    3.51106   3.51577   3.53624   3.53960   3.60533
 Alpha virt. eigenvalues --    4.28162   4.32280   4.39152   4.41096   4.47660
 Alpha virt. eigenvalues --    4.57714   4.63563   4.70543   4.82372   4.88828
 Alpha virt. eigenvalues --    4.90323
          Condensed to atoms (all electrons):
              1          2          3          4          5          6
     1  C    5.537347  -0.245361  -0.389945  -0.217086   0.278184   0.061526
     2  C   -0.245361   7.050628  -0.335220   0.315502  -0.282706  -0.495401
     3  C   -0.389945  -0.335220   6.319299   0.177566  -0.718740   0.189473
     4  C   -0.217086   0.315502   0.177566   6.016821  -0.383480  -0.154878
     5  C    0.278184  -0.282706  -0.718740  -0.383480   6.693158  -0.147728
     6  C    0.061526  -0.495401   0.189473  -0.154878  -0.147728   6.006829
     7  O   -0.036609   0.037311   0.274197  -0.040451  -0.073089  -0.051464
     8  O    0.160046  -0.142105   0.329585   0.048424  -0.202346  -0.004419
     9  O    0.043946  -0.195245  -0.010695  -0.182579   0.054427   0.312226
    10  O   -0.000342  -0.007849   0.043484   0.261734  -0.124640  -0.095471
    11  O    0.021164  -0.019898  -0.088962  -0.141948   0.294153   0.023829
    12  H    0.490052  -0.178354   0.014847  -0.034975   0.024633   0.026248
    13  H    0.397045  -0.018056  -0.012755   0.004031  -0.002005   0.013505
    14  H   -0.017523   0.307336   0.018647  -0.001904  -0.000154   0.028732
    15  H    0.006136   0.026501   0.353858   0.018978  -0.027234  -0.002753
    16  H   -0.003445   0.012641  -0.003418   0.427645  -0.087825  -0.036908
    17  H    0.002326   0.002787  -0.086649  -0.067461   0.482804  -0.004397
    18  H    0.012106  -0.062807  -0.016997  -0.089476   0.020648   0.439039
    19  H   -0.004922  -0.022385   0.003125   0.021453  -0.006360   0.016520
    20  H    0.000468   0.008862  -0.008288   0.015983   0.037178  -0.059541
    21  H    0.002956  -0.000163  -0.046277  -0.042050   0.065277   0.001515
              7          8          9         10         11         12
     1  C   -0.036609   0.160046   0.043946  -0.000342   0.021164   0.490052
     2  C    0.037311  -0.142105  -0.195245  -0.007849  -0.019898  -0.178354
     3  C    0.274197   0.329585  -0.010695   0.043484  -0.088962   0.014847
     4  C   -0.040451   0.048424  -0.182579   0.261734  -0.141948  -0.034975
     5  C   -0.073089  -0.202346   0.054427  -0.124640   0.294153   0.024633
     6  C   -0.051464  -0.004419   0.312226  -0.095471   0.023829   0.026248
     7  O    8.355757  -0.047300   0.015214  -0.001979   0.008087   0.012405
     8  O   -0.047300   8.427173  -0.003685  -0.003166  -0.002738  -0.040556
     9  O    0.015214  -0.003685   8.381682  -0.011823  -0.000064   0.010374
    10  O   -0.001979  -0.003166  -0.011823   8.370863   0.005376   0.000074
    11  O    0.008087  -0.002738  -0.000064   0.005376   8.306107   0.000165
    12  H    0.012405  -0.040556   0.010374   0.000074   0.000165   0.531729
    13  H   -0.000762  -0.052516  -0.001929   0.000002  -0.000009  -0.038414
    14  H   -0.031391   0.007005  -0.002564  -0.000567   0.000076   0.002650
    15  H   -0.045629  -0.046019  -0.000068  -0.000649   0.002167  -0.000261
    16  H    0.000961   0.001423  -0.001206  -0.046421  -0.007768   0.001051
    17  H    0.003750   0.008387  -0.000372   0.000833  -0.063243  -0.000020
    18  H    0.007909  -0.000425  -0.041950   0.003134  -0.000170   0.000233
    19  H   -0.000240   0.000038   0.244700  -0.000188   0.000001  -0.000070
    20  H    0.000040   0.000203   0.015106   0.242011  -0.000501  -0.000011
    21  H    0.000546   0.018590  -0.000105  -0.000622   0.247768  -0.000101
             13         14         15         16         17         18
     1  C    0.397045  -0.017523   0.006136  -0.003445   0.002326   0.012106
     2  C   -0.018056   0.307336   0.026501   0.012641   0.002787  -0.062807
     3  C   -0.012755   0.018647   0.353858  -0.003418  -0.086649  -0.016997
     4  C    0.004031  -0.001904   0.018978   0.427645  -0.067461  -0.089476
     5  C   -0.002005  -0.000154  -0.027234  -0.087825   0.482804   0.020648
     6  C    0.013505   0.028732  -0.002753  -0.036908  -0.004397   0.439039
     7  O   -0.000762  -0.031391  -0.045629   0.000961   0.003750   0.007909
     8  O   -0.052516   0.007005  -0.046019   0.001423   0.008387  -0.000425
     9  O   -0.001929  -0.002564  -0.000068  -0.001206  -0.000372  -0.041950
    10  O    0.000002  -0.000567  -0.000649  -0.046421   0.000833   0.003134
    11  O   -0.000009   0.000076   0.002167  -0.007768  -0.063243  -0.000170
    12  H   -0.038414   0.002650  -0.000261   0.001051  -0.000020   0.000233
    13  H    0.549905  -0.003839   0.000279   0.000027   0.000018  -0.000137
    14  H   -0.003839   0.516245  -0.000063  -0.000196  -0.000029  -0.005898
    15  H    0.000279  -0.000063   0.544457  -0.000219  -0.003069  -0.000081
    16  H    0.000027  -0.000196  -0.000219   0.560281   0.004309   0.004692
    17  H    0.000018  -0.000029  -0.003069   0.004309   0.533200   0.001202
    18  H   -0.000137  -0.005898  -0.000081   0.004692   0.001202   0.559937
    19  H   -0.000007   0.001706   0.000000   0.000143   0.000006  -0.006893
    20  H    0.000000  -0.000002   0.000004  -0.005137   0.000056  -0.001122
    21  H    0.000024  -0.000001  -0.000656   0.003493   0.006546   0.000006
             19         20         21
     1  C   -0.004922   0.000468   0.002956
     2  C   -0.022385   0.008862  -0.000163
     3  C    0.003125  -0.008288  -0.046277
     4  C    0.021453   0.015983  -0.042050
     5  C   -0.006360   0.037178   0.065277
     6  C    0.016520  -0.059541   0.001515
     7  O   -0.000240   0.000040   0.000546
     8  O    0.000038   0.000203   0.018590
     9  O    0.244700   0.015106  -0.000105
    10  O   -0.000188   0.242011  -0.000622
    11  O    0.000001  -0.000501   0.247768
    12  H   -0.000070  -0.000011  -0.000101
    13  H   -0.000007   0.000000   0.000024
    14  H    0.001706  -0.000002  -0.000001
    15  H    0.000000   0.000004  -0.000656
    16  H    0.000143  -0.005137   0.003493
    17  H    0.000006   0.000056   0.006546
    18  H   -0.006893  -0.001122   0.000006
    19  H    0.336810  -0.000834   0.000000
    20  H   -0.000834   0.345438  -0.000017
    21  H    0.000000  -0.000017   0.344311
 Mulliken atomic charges:
              1
     1  C   -0.098067
     2  C    0.243984
     3  C   -0.006136
     4  C    0.048151
     5  C    0.105844
     6  C   -0.066482
     7  O   -0.387264
     8  O   -0.455602
     9  O   -0.625392
    10  O   -0.633792
    11  O   -0.583593
    12  H    0.178301
    13  H    0.165594
    14  H    0.181734
    15  H    0.174321
    16  H    0.175879
    17  H    0.179014
    18  H    0.177049
    19  H    0.417396
    20  H    0.410102
    21  H    0.398960
 Sum of Mulliken atomic charges =   0.00000
 Mulliken charges with hydrogens summed into heavy atoms:
              1
     1  C    0.245828
     2  C    0.425718
     3  C    0.168185
     4  C    0.224029
     5  C    0.284858
     6  C    0.110567
     7  O   -0.387264
     8  O   -0.455602
     9  O   -0.207996
    10  O   -0.223689
    11  O   -0.184633
 Sum of Mulliken charges with hydrogens summed into heavy atoms =   0.00000
 Electronic spatial extent (au):  <R**2>=           1463.2463
 Charge=              0.0000 electrons
 Dipole moment (field-independent basis, Debye):
    X=             -2.9803    Y=             -5.6880    Z=             -0.1822  Tot=              6.4240
 Quadrupole moment (field-independent basis, Debye-Ang):
   XX=            -61.4805   YY=            -71.2872   ZZ=            -65.2429
   XY=              5.6447   XZ=             -2.4365   YZ=             -1.3791
 Traceless Quadrupole moment (field-independent basis, Debye-Ang):
   XX=              4.5230   YY=             -5.2837   ZZ=              0.7607
   XY=              5.6447   XZ=             -2.4365   YZ=             -1.3791
 Octapole moment (field-independent basis, Debye-Ang**2):
  XXX=            -33.3770  YYY=            -60.9145  ZZZ=             -9.5959  XYY=            -14.3417
  XXY=             -8.6733  XXZ=             10.1156  XZZ=             -0.3178  YZZ=              9.0741
  YYZ=             -3.9860  XYZ=              9.5446
 Hexadecapole moment (field-independent basis, Debye-Ang**3):
 XXXX=           -679.1857 YYYY=           -837.9438 ZZZZ=           -256.6952 XXXY=             27.4303
 XXXZ=             -0.8788 YYYX=             10.0284 YYYZ=             -3.0063 ZZZX=            -11.1107
 ZZZY=             -2.7548 XXYY=           -246.1607 XXZZ=           -178.4012 YYZZ=           -161.8480
 XXYZ=            -24.6940 YYXZ=             -9.9863 ZZXY=             14.9536
 N-N= 7.227580595238D+02 E-N=-2.875382107926D+03  KE= 6.053421923176D+02

 Test job not archived.
 1\1\GINC-COMPUTE-10-2\SP\RB3LYP\6-31+G(d,p)\C6H10O5\ROOT\15-Apr-2019\0
 \\# B3LYP/6-31+G** test scrf=(pcm,solvent=water,smd,dovacuum)\\comment
 \\0,1\C,0,0.662776,-1.657637,-0.920276\C,0,-0.104446,-1.541798,0.40352
 4\C,0,1.512945,-0.027127,0.472821\C,0,-0.758471,0.836767,-0.167439\C,0
 ,0.62061,1.222902,0.39215\C,0,-1.249506,-0.513704,0.374026\O,0,0.91158
 9,-1.015966,1.280002\O,0,1.642552,-0.599004,-0.834671\O,0,-2.330879,-0
 .907119,-0.469823\O,0,-1.68724,1.873467,0.127049\O,0,1.251738,2.232857
 ,-0.384825\H,0,0.024533,-1.510499,-1.796076\H,0,1.182361,-2.6175,-1.00
 537\H,0,-0.437565,-2.503451,0.799467\H,0,2.506026,0.209427,0.862663\H,
 0,-0.655589,0.731382,-1.258832\H,0,0.500927,1.638855,1.397815\H,0,-1.5
 94208,-0.368786,1.406491\H,0,-2.859857,-1.5703,0.001861\H,0,-2.539027,
 1.579752,-0.238424\H,0,1.466874,1.820832,-1.240301\\Version=EM64L-G09R
 evC.01\State=1-A\HF=-610.8117964\RMSD=4.815e-09\Dipole=-1.1725281,-2.2
 378263,-0.0717018\Quadrupole=3.362762,-3.928288,0.565526,4.1967167,-1.
 8115122,-1.0253587\PG=C01 [X(C6H10O5)]\\@


 BE NOT THE FIRST BY WHOM THE NEW ARE TRIED,
 NOR YET THE THE LAST TO LAY THE OLD ASIDE.

                          -- ALEXANDER POPE
 Job cpu time:  0 days  0 hours  6 minutes  9.2 seconds.
 File lengths (MBytes):  RWF=     56 Int=      0 D2E=      0 Chk=      4 Scr=      1
 Normal termination of Gaussian 09 at Mon Apr 15 18:53:35 2019.
