 Entering Gaussian System, Link 0=g09
 Input=/home/asarotti.iquir/SCF3/07_SRS_Levo10_OPTB_energy_b3lyp_smd.gjc
 Output=/home/asarotti.iquir/SCF3/07_SRS_Levo10_OPTB_energy_b3lyp_smd.log
 Initial command:
 /share/apps/Gaussian09/EM64T.SSE4.2-enabled/g09/l1.exe /tmp/Gau-12928.inp -scrdir=/tmp/
 Entering Link 1 = /share/apps/Gaussian09/EM64T.SSE4.2-enabled/g09/l1.exe PID=     12929.
  
 Copyright (c) 1988,1990,1992,1993,1995,1998,2003,2009,2011,
            Gaussian, Inc.  All Rights Reserved.
  
 This is part of the Gaussian(R) 09 program.  It is based on
 the Gaussian(R) 03 system (copyright 2003, Gaussian, Inc.),
 the Gaussian(R) 98 system (copyright 1998, Gaussian, Inc.),
 the Gaussian(R) 94 system (copyright 1995, Gaussian, Inc.),
 the Gaussian 92(TM) system (copyright 1992, Gaussian, Inc.),
 the Gaussian 90(TM) system (copyright 1990, Gaussian, Inc.),
 the Gaussian 88(TM) system (copyright 1988, Gaussian, Inc.),
 the Gaussian 86(TM) system (copyright 1986, Carnegie Mellon
 University), and the Gaussian 82(TM) system (copyright 1983,
 Carnegie Mellon University). Gaussian is a federally registered
 trademark of Gaussian, Inc.
  
 This software contains proprietary and confidential information,
 including trade secrets, belonging to Gaussian, Inc.
  
 This software is provided under written license and may be
 used, copied, transmitted, or stored only in accord with that
 written license.
  
 The following legend is applicable only to US Government
 contracts under FAR:
  
                    RESTRICTED RIGHTS LEGEND
  
 Use, reproduction and disclosure by the US Government is
 subject to restrictions as set forth in subparagraphs (a)
 and (c) of the Commercial Computer Software - Restricted
 Rights clause in FAR 52.227-19.
  
 Gaussian, Inc.
 340 Quinnipiac St., Bldg. 40, Wallingford CT 06492
  
  
 ---------------------------------------------------------------
 Warning -- This program may not be used in any manner that
 competes with the business of Gaussian, Inc. or will provide
 assistance to any competitor of Gaussian, Inc.  The licensee
 of this program is prohibited from giving any competitor of
 Gaussian, Inc. access to this program.  By using this program,
 the user acknowledges that Gaussian, Inc. is engaged in the
 business of creating and licensing software in the field of
 computational chemistry and represents and warrants to the
 licensee that it is not a competitor of Gaussian, Inc. and that
 it will not use this program in any manner prohibited above.
 ---------------------------------------------------------------
  

 Cite this work as:
 Gaussian 09, Revision C.01,
 M. J. Frisch, G. W. Trucks, H. B. Schlegel, G. E. Scuseria, 
 M. A. Robb, J. R. Cheeseman, G. Scalmani, V. Barone, B. Mennucci, 
 G. A. Petersson, H. Nakatsuji, M. Caricato, X. Li, H. P. Hratchian, 
 A. F. Izmaylov, J. Bloino, G. Zheng, J. L. Sonnenberg, M. Hada, 
 M. Ehara, K. Toyota, R. Fukuda, J. Hasegawa, M. Ishida, T. Nakajima, 
 Y. Honda, O. Kitao, H. Nakai, T. Vreven, J. A. Montgomery, Jr., 
 J. E. Peralta, F. Ogliaro, M. Bearpark, J. J. Heyd, E. Brothers, 
 K. N. Kudin, V. N. Staroverov, T. Keith, R. Kobayashi, J. Normand, 
 K. Raghavachari, A. Rendell, J. C. Burant, S. S. Iyengar, J. Tomasi, 
 M. Cossi, N. Rega, J. M. Millam, M. Klene, J. E. Knox, J. B. Cross, 
 V. Bakken, C. Adamo, J. Jaramillo, R. Gomperts, R. E. Stratmann, 
 O. Yazyev, A. J. Austin, R. Cammi, C. Pomelli, J. W. Ochterski, 
 R. L. Martin, K. Morokuma, V. G. Zakrzewski, G. A. Voth, 
 P. Salvador, J. J. Dannenberg, S. Dapprich, A. D. Daniels, 
 O. Farkas, J. B. Foresman, J. V. Ortiz, J. Cioslowski, 
 and D. J. Fox, Gaussian, Inc., Wallingford CT, 2010.
 
 ******************************************
 Gaussian 09:  EM64L-G09RevC.01 23-Sep-2011
                15-Apr-2019 
 ******************************************
 %nprocshared=4
 Will use up to    4 processors via shared memory.
 -----------------------------------------------------------
 # B3LYP/6-31+G** test scrf=(pcm,solvent=water,smd,dovacuum)
 -----------------------------------------------------------
 1/38=1/1;
 2/12=2,17=6,18=5,40=1/2;
 3/5=1,6=6,7=111,11=2,16=1,25=1,30=1,70=32101,72=1,74=-5/1,2,3;
 4//1;
 5/5=2,38=5,53=1/2;
 6/7=2,8=2,9=2,10=2,28=1/1;
 99/5=1,9=1/99;
 -------
 comment
 -------
 Charge =  0 Multiplicity = 1
 Symbolic Z-Matrix:
 6                    -0.90205   1.61123  -0.88586 
 6                    -0.13849   1.54214   0.44264 
 6                    -1.51079  -0.20238   0.39824 
 6                     0.86451  -0.70849  -0.19023 
 6                    -0.43113  -1.30424   0.36285 
 6                     1.1412    0.68758   0.40078 
 8                    -1.08728   0.83527   1.26507 
 8                    -1.67502   0.39686  -0.88785 
 8                     2.23559   1.31216  -0.26626 
 8                     1.9482   -1.58927   0.07944 
 8                    -0.80994  -2.39203  -0.47211 
 1                    -0.25744   1.6369   -1.7712 
 1                    -1.57439   2.47561  -0.915 
 1                     0.0544    2.51844   0.89028 
 1                    -2.47565  -0.58539   0.74337 
 1                     0.72837  -0.60658  -1.27931 
 1                    -0.25917  -1.64051   1.39506 
 1                     1.47681   0.55949   1.43479 
 1                     2.00915   1.40911  -1.20697 
 1                     2.74959  -1.11837  -0.20738 
 1                    -1.48357  -2.90773  -0.00051 
 
                          Input orientation:                          
 ---------------------------------------------------------------------
 Center     Atomic      Atomic             Coordinates (Angstroms)
 Number     Number       Type             X           Y           Z
 ---------------------------------------------------------------------
      1          6           0       -0.902045    1.611234   -0.885859
      2          6           0       -0.138490    1.542142    0.442635
      3          6           0       -1.510788   -0.202375    0.398243
      4          6           0        0.864514   -0.708491   -0.190225
      5          6           0       -0.431132   -1.304241    0.362851
      6          6           0        1.141197    0.687575    0.400784
      7          8           0       -1.087284    0.835274    1.265067
      8          8           0       -1.675019    0.396860   -0.887849
      9          8           0        2.235594    1.312162   -0.266262
     10          8           0        1.948195   -1.589265    0.079443
     11          8           0       -0.809940   -2.392035   -0.472113
     12          1           0       -0.257443    1.636904   -1.771200
     13          1           0       -1.574386    2.475605   -0.914996
     14          1           0        0.054400    2.518436    0.890280
     15          1           0       -2.475648   -0.585385    0.743370
     16          1           0        0.728374   -0.606579   -1.279309
     17          1           0       -0.259170   -1.640514    1.395056
     18          1           0        1.476805    0.559487    1.434792
     19          1           0        2.009151    1.409106   -1.206968
     20          1           0        2.749586   -1.118371   -0.207381
     21          1           0       -1.483573   -2.907727   -0.000506
 ---------------------------------------------------------------------
                    Distance matrix (angstroms):
                    1          2          3          4          5
     1  C    0.000000
     2  C    1.533847   0.000000
     3  C    2.304054   2.220025   0.000000
     4  C    2.997626   2.543989   2.498901   0.000000
     5  C    3.206405   2.862499   1.543055   1.529546   0.000000
     6  C    2.585234   1.539362   2.797328   1.541053   2.537910
     7  O    2.294103   1.440926   1.416847   2.882811   2.412893
     8  O    1.439513   2.332977   1.428316   2.856170   2.450561
     9  O    3.212184   2.488313   4.095213   2.443088   3.788506
    10  O    4.393048   3.780459   3.740275   1.422269   2.413039
    11  O    4.025647   4.094552   2.458316   2.391146   1.422658
    12  H    1.095445   2.219053   3.108103   3.042885   3.637949
    13  H    1.095458   2.185478   2.983323   4.075781   4.150561
    14  H    2.211893   1.091212   3.177220   3.498119   3.889316
    15  H    3.155273   3.174763   1.093967   3.470366   2.200362
    16  H    2.780605   2.886788   2.826908   1.102281   2.127881
    17  H    4.023646   3.324300   2.151378   2.155098   1.099135
    18  H    3.485760   2.135220   3.252780   2.150197   2.874502
    19  H    2.935818   2.711319   4.190888   2.613078   3.972602
    20  H    4.609282   3.980180   4.399615   1.929195   3.236770
    21  H    4.641447   4.669792   2.734716   3.222754   1.952134
                    6          7          8          9         10
     6  C    0.000000
     7  O    2.394771   0.000000
     8  O    3.110653   2.274354   0.000000
     9  O    1.425750   3.689703   4.064116   0.000000
    10  O    2.436905   4.061801   4.243586   2.936050   0.000000
    11  O    3.748717   3.675627   2.949429   4.799867   2.925058
    12  H    2.752260   3.248102   2.080274   2.930107   4.324105
    13  H    3.507523   2.771395   2.081356   4.036137   5.469978
    14  H    2.184671   2.068077   3.264003   2.747780   4.595337
    15  H    3.849592   2.053776   2.065596   5.178402   4.584644
    16  H    2.160549   3.442296   2.633710   2.641883   2.073606
    17  H    2.893027   2.613847   3.371524   4.207389   2.570199
    18  H    1.094629   2.584457   3.918559   2.008946   2.583857
    19  H    1.964387   4.003517   3.834004   0.972421   3.263250
    20  H    2.493636   4.550429   4.726107   2.484984   0.972747
    21  H    4.469524   3.970992   3.426999   5.631189   3.677195
                   11         12         13         14         15
    11  O    0.000000
    12  H    4.269102   0.000000
    13  H    4.947165   1.780686   0.000000
    14  H    5.168745   2.820961   2.431831   0.000000
    15  H    2.741526   4.022694   3.596124   4.007048   0.000000
    16  H    2.491150   2.499402   3.864620   3.863557   3.789121
    17  H    2.086732   4.557044   4.899854   4.201189   2.539836
    18  H    4.192490   3.800898   4.301486   2.481373   4.172611
    19  H    4.789150   2.346849   3.750254   3.074104   5.281594
    20  H    3.789793   4.367985   5.666932   4.657816   5.337703
    21  H    0.970635   5.029157   5.461209   5.709825   2.632648
                   16         17         18         19         20
    16  H    0.000000
    17  H    3.032572   0.000000
    18  H    3.047327   2.802712   0.000000
    19  H    2.389270   4.606082   2.825622   0.000000
    20  H    2.344410   3.448630   2.670564   2.817012   0.000000
    21  H    3.438507   2.247796   4.779696   5.682404   4.600459
                   21
    21  H    0.000000
 Stoichiometry    C6H10O5
 Framework group  C1[X(C6H10O5)]
 Deg. of freedom    57
 Full point group                 C1      NOp   1
 Largest Abelian subgroup         C1      NOp   1
 Largest concise Abelian subgroup C1      NOp   1
                         Standard orientation:                         
 ---------------------------------------------------------------------
 Center     Atomic      Atomic             Coordinates (Angstroms)
 Number     Number       Type             X           Y           Z
 ---------------------------------------------------------------------
      1          6           0        0.902035   -1.611240   -0.885859
      2          6           0        0.138480   -1.542143    0.442635
      3          6           0        1.510789    0.202366    0.398243
      4          6           0       -0.864510    0.708496   -0.190225
      5          6           0        0.431140    1.304238    0.362851
      6          6           0       -1.141201   -0.687568    0.400784
      7          8           0        1.087279   -0.835281    1.265067
      8          8           0        1.675017   -0.396870   -0.887849
      9          8           0       -2.235602   -1.312148   -0.266262
     10          8           0       -1.948185    1.589277    0.079443
     11          8           0        0.809955    2.392030   -0.472113
     12          1           0        0.257433   -1.636906   -1.771200
     13          1           0        1.574371   -2.475615   -0.914996
     14          1           0       -0.054416   -2.518436    0.890280
     15          1           0        2.475652    0.585370    0.743370
     16          1           0       -0.728370    0.606583   -1.279309
     17          1           0        0.259180    1.640512    1.395056
     18          1           0       -1.476808   -0.559478    1.434792
     19          1           0       -2.009160   -1.409094   -1.206968
     20          1           0       -2.749579    1.118388   -0.207381
     21          1           0        1.483591    2.907718   -0.000506
 ---------------------------------------------------------------------
 Rotational constants (GHZ):      1.3701028      1.3365582      0.8409735
 Standard basis: 6-31+G(d,p) (6D, 7F)
 There are   259 symmetry adapted basis functions of A   symmetry.
 Integral buffers will be    131072 words long.
 Raffenetti 2 integral format.
 Two-electron integral symmetry is turned on.
   259 basis functions,   422 primitive gaussians,   259 cartesian basis functions
    43 alpha electrons       43 beta electrons
       nuclear repulsion energy       721.6105134314 Hartrees.
 NAtoms=   21 NActive=   21 NUniq=   21 SFac= 1.00D+00 NAtFMM=   60 NAOKFM=F Big=F
 ------------------------------------------------------------------------------
 Polarizable Continuum Model (PCM)
 =================================
 Model                : C-PCM.
 Atomic radii         : SMD-Coulomb.
 Polarization charges : Total charges.
 Charge compensation  : None.
 Solution method      : Matrix inversion.
 Cavity type          : VdW (van der Waals Surface) (Alpha=1.000).
 Cavity algorithm     : GePol (No added spheres)
                        Default sphere list used, NSphG=   21.
                        Lebedev-Laikov grids with approx.  5.0 points / Ang**2.
                        Smoothing algorithm: Karplus/York (Gamma=1.0000).
                        Polarization charges: spherical gaussians, with
                                              point-specific exponents (IZeta= 3).
                        Self-potential: point-specific (ISelfS= 7).
                        Self-field    : sphere-specific E.n sum rule (ISelfD= 2).
 Solvent              : Water, Eps=  78.355300 Eps(inf)=   1.777849
 ------------------------------------------------------------------------------
 ------------------------------------------------------------------------------
 Atomic radii for non-electrostatic terms: SMD-CDS.
 ------------------------------------------------------------------------------
 Nuclear repulsion after PCM non-electrostatic terms =      721.6155105499 Hartrees.
 One-electron integrals computed using PRISM.
 NBasis=   259 RedAO= T  NBF=   259
 NBsUse=   259 1.00D-06 NBFU=   259
 Harris functional with IExCor=  402 diagonalized for initial guess.
 ExpMin= 4.38D-02 ExpMax= 5.48D+03 ExpMxC= 8.25D+02 IAcc=2 IRadAn=         4 AccDes= 0.00D+00
 HarFok:  IExCor=  402 AccDes= 0.00D+00 IRadAn=         4 IDoV= 1
 ScaDFX=  1.000000  1.000000  1.000000  1.000000
 FoFCou: FMM=F IPFlag=           0 FMFlag=      100000 FMFlg1=           0
         NFxFlg=           0 DoJE=T BraDBF=F KetDBF=T FulRan=T
         Omega=  0.000000  0.000000  1.000000  0.000000  0.000000 ICntrl=     500 IOpCl=  0
         NMat0=    1 NMatS0=    1 NMatT0=    0 NMatD0=    1 NMtDS0=    0 NMtDT0=    0
         I1Cent=           4 NGrid=           0.
 Petite list used in FoFCou.
 Initial guess orbital symmetries:
       Occupied  (A) (A) (A) (A) (A) (A) (A) (A) (A) (A) (A) (A)
                 (A) (A) (A) (A) (A) (A) (A) (A) (A) (A) (A) (A)
                 (A) (A) (A) (A) (A) (A) (A) (A) (A) (A) (A) (A)
                 (A) (A) (A) (A) (A) (A) (A)
       Virtual   (A) (A) (A) (A) (A) (A) (A) (A) (A) (A) (A) (A)
                 (A) (A) (A) (A) (A) (A) (A) (A) (A) (A) (A) (A)
                 (A) (A) (A) (A) (A) (A) (A) (A) (A) (A) (A) (A)
                 (A) (A) (A) (A) (A) (A) (A) (A) (A) (A) (A) (A)
                 (A) (A) (A) (A) (A) (A) (A) (A) (A) (A) (A) (A)
                 (A) (A) (A) (A) (A) (A) (A) (A) (A) (A) (A) (A)
                 (A) (A) (A) (A) (A) (A) (A) (A) (A) (A) (A) (A)
                 (A) (A) (A) (A) (A) (A) (A) (A) (A) (A) (A) (A)
                 (A) (A) (A) (A) (A) (A) (A) (A) (A) (A) (A) (A)
                 (A) (A) (A) (A) (A) (A) (A) (A) (A) (A) (A) (A)
                 (A) (A) (A) (A) (A) (A) (A) (A) (A) (A) (A) (A)
                 (A) (A) (A) (A) (A) (A) (A) (A) (A) (A) (A) (A)
                 (A) (A) (A) (A) (A) (A) (A) (A) (A) (A) (A) (A)
                 (A) (A) (A) (A) (A) (A) (A) (A) (A) (A) (A) (A)
                 (A) (A) (A) (A) (A) (A) (A) (A) (A) (A) (A) (A)
                 (A) (A) (A) (A) (A) (A) (A) (A) (A) (A) (A) (A)
                 (A) (A) (A) (A) (A) (A) (A) (A) (A) (A) (A) (A)
                 (A) (A) (A) (A) (A) (A) (A) (A) (A) (A) (A) (A)
 The electronic state of the initial guess is 1-A.
 Requested convergence on RMS density matrix=1.00D-08 within 128 cycles.
 Requested convergence on MAX density matrix=1.00D-06.
 Requested convergence on             energy=1.00D-06.
 No special actions if energy rises.
 Error on total polarization charges =  0.05878
 SCF Done:  E(RB3LYP) =  -610.811217873     A.U. after   12 cycles
             Convg  =    0.5012D-08             -V/T =  2.0091
 SMD-CDS (non-electrostatic) energy       (kcal/mol) =       3.14
 (included in total energy above)

 **********************************************************************

            Population analysis using the SCF density.

 **********************************************************************

 Orbital symmetries:
       Occupied  (A) (A) (A) (A) (A) (A) (A) (A) (A) (A) (A) (A)
                 (A) (A) (A) (A) (A) (A) (A) (A) (A) (A) (A) (A)
                 (A) (A) (A) (A) (A) (A) (A) (A) (A) (A) (A) (A)
                 (A) (A) (A) (A) (A) (A) (A)
       Virtual   (A) (A) (A) (A) (A) (A) (A) (A) (A) (A) (A) (A)
                 (A) (A) (A) (A) (A) (A) (A) (A) (A) (A) (A) (A)
                 (A) (A) (A) (A) (A) (A) (A) (A) (A) (A) (A) (A)
                 (A) (A) (A) (A) (A) (A) (A) (A) (A) (A) (A) (A)
                 (A) (A) (A) (A) (A) (A) (A) (A) (A) (A) (A) (A)
                 (A) (A) (A) (A) (A) (A) (A) (A) (A) (A) (A) (A)
                 (A) (A) (A) (A) (A) (A) (A) (A) (A) (A) (A) (A)
                 (A) (A) (A) (A) (A) (A) (A) (A) (A) (A) (A) (A)
                 (A) (A) (A) (A) (A) (A) (A) (A) (A) (A) (A) (A)
                 (A) (A) (A) (A) (A) (A) (A) (A) (A) (A) (A) (A)
                 (A) (A) (A) (A) (A) (A) (A) (A) (A) (A) (A) (A)
                 (A) (A) (A) (A) (A) (A) (A) (A) (A) (A) (A) (A)
                 (A) (A) (A) (A) (A) (A) (A) (A) (A) (A) (A) (A)
                 (A) (A) (A) (A) (A) (A) (A) (A) (A) (A) (A) (A)
                 (A) (A) (A) (A) (A) (A) (A) (A) (A) (A) (A) (A)
                 (A) (A) (A) (A) (A) (A) (A) (A) (A) (A) (A) (A)
                 (A) (A) (A) (A) (A) (A) (A) (A) (A) (A) (A) (A)
                 (A) (A) (A) (A) (A) (A) (A) (A) (A) (A) (A) (A)
 The electronic state is 1-A.
 Alpha  occ. eigenvalues --  -19.18586 -19.17554 -19.17464 -19.17190 -19.16897
 Alpha  occ. eigenvalues --  -10.29417 -10.25139 -10.24768 -10.24740 -10.24611
 Alpha  occ. eigenvalues --  -10.24044  -1.11221  -1.05175  -1.03987  -1.02538
 Alpha  occ. eigenvalues --   -1.01297  -0.79229  -0.78515  -0.68348  -0.65353
 Alpha  occ. eigenvalues --   -0.62391  -0.59135  -0.55594  -0.53824  -0.52265
 Alpha  occ. eigenvalues --   -0.50348  -0.48251  -0.47466  -0.45348  -0.44351
 Alpha  occ. eigenvalues --   -0.42246  -0.41634  -0.40928  -0.39071  -0.37320
 Alpha  occ. eigenvalues --   -0.36397  -0.35435  -0.34277  -0.31593  -0.30973
 Alpha  occ. eigenvalues --   -0.29597  -0.27713  -0.26230
 Alpha virt. eigenvalues --    0.00845   0.01404   0.01702   0.02747   0.03938
 Alpha virt. eigenvalues --    0.04966   0.05168   0.05640   0.05814   0.08382
 Alpha virt. eigenvalues --    0.08826   0.09860   0.10004   0.10731   0.11369
 Alpha virt. eigenvalues --    0.12080   0.12522   0.13804   0.14362   0.14494
 Alpha virt. eigenvalues --    0.14776   0.15429   0.16284   0.16750   0.17365
 Alpha virt. eigenvalues --    0.17976   0.19450   0.19757   0.20393   0.20853
 Alpha virt. eigenvalues --    0.21290   0.21598   0.22448   0.23159   0.23573
 Alpha virt. eigenvalues --    0.24071   0.24688   0.25569   0.26022   0.26663
 Alpha virt. eigenvalues --    0.27900   0.28293   0.28425   0.28919   0.29504
 Alpha virt. eigenvalues --    0.30606   0.31173   0.32201   0.32804   0.33473
 Alpha virt. eigenvalues --    0.33877   0.34391   0.34490   0.35661   0.36781
 Alpha virt. eigenvalues --    0.37370   0.37972   0.38583   0.39031   0.39218
 Alpha virt. eigenvalues --    0.39962   0.41104   0.42395   0.44279   0.45780
 Alpha virt. eigenvalues --    0.46422   0.63710   0.65057   0.66227   0.68094
 Alpha virt. eigenvalues --    0.70720   0.71536   0.73925   0.76066   0.77523
 Alpha virt. eigenvalues --    0.78296   0.79804   0.80810   0.82244   0.86370
 Alpha virt. eigenvalues --    0.87636   0.91504   0.95006   0.95533   0.97994
 Alpha virt. eigenvalues --    1.02081   1.03026   1.04178   1.04585   1.06324
 Alpha virt. eigenvalues --    1.07531   1.08159   1.10132   1.12253   1.13147
 Alpha virt. eigenvalues --    1.17826   1.21755   1.22394   1.24261   1.25437
 Alpha virt. eigenvalues --    1.26172   1.28412   1.29831   1.30595   1.31351
 Alpha virt. eigenvalues --    1.32959   1.34951   1.36583   1.38689   1.39533
 Alpha virt. eigenvalues --    1.41379   1.43471   1.44262   1.45700   1.50755
 Alpha virt. eigenvalues --    1.52360   1.54109   1.57758   1.58089   1.60106
 Alpha virt. eigenvalues --    1.61403   1.62673   1.64283   1.64996   1.66555
 Alpha virt. eigenvalues --    1.69411   1.72672   1.73560   1.75967   1.78870
 Alpha virt. eigenvalues --    1.80449   1.82299   1.84572   1.85532   1.87261
 Alpha virt. eigenvalues --    1.90821   1.92984   1.94500   1.95099   1.97279
 Alpha virt. eigenvalues --    1.99107   2.01759   2.04716   2.06886   2.07124
 Alpha virt. eigenvalues --    2.08709   2.10403   2.13141   2.13940   2.17615
 Alpha virt. eigenvalues --    2.18916   2.20752   2.23131   2.24246   2.28004
 Alpha virt. eigenvalues --    2.31226   2.34276   2.37545   2.38836   2.39914
 Alpha virt. eigenvalues --    2.43472   2.43875   2.46275   2.48043   2.49443
 Alpha virt. eigenvalues --    2.53953   2.56413   2.60523   2.61455   2.62834
 Alpha virt. eigenvalues --    2.64252   2.65233   2.67260   2.69035   2.69508
 Alpha virt. eigenvalues --    2.71743   2.74238   2.77077   2.78876   2.80961
 Alpha virt. eigenvalues --    2.82850   2.84309   2.87378   2.88932   2.92292
 Alpha virt. eigenvalues --    2.92384   2.94276   2.96005   3.00372   3.02049
 Alpha virt. eigenvalues --    3.04512   3.05615   3.11163   3.16394   3.23148
 Alpha virt. eigenvalues --    3.32776   3.36463   3.42848   3.46214   3.48053
 Alpha virt. eigenvalues --    3.50502   3.51446   3.53167   3.54838   3.60885
 Alpha virt. eigenvalues --    4.28403   4.34236   4.37521   4.42210   4.47668
 Alpha virt. eigenvalues --    4.56520   4.63129   4.71329   4.80993   4.87016
 Alpha virt. eigenvalues --    4.92431
          Condensed to atoms (all electrons):
              1          2          3          4          5          6
     1  C    5.568440  -0.282820  -0.425724  -0.245291   0.277752   0.138260
     2  C   -0.282820   6.645030  -0.268717   0.312188  -0.100598  -0.446538
     3  C   -0.425724  -0.268717   6.388028   0.166359  -0.795934   0.147251
     4  C   -0.245291   0.312188   0.166359   6.207616  -0.271950  -0.389897
     5  C    0.277752  -0.100598  -0.795934  -0.271950   6.604563  -0.176843
     6  C    0.138260  -0.446538   0.147251  -0.389897  -0.176843   6.197946
     7  O   -0.037031   0.085698   0.273826  -0.051667  -0.072283  -0.057705
     8  O    0.158618  -0.132279   0.341459   0.030944  -0.213109   0.000514
     9  O    0.029756  -0.098949  -0.006762  -0.087862   0.023462   0.227902
    10  O    0.000608  -0.001803   0.047563   0.230235  -0.158702  -0.052222
    11  O    0.020481  -0.020621  -0.131815  -0.194444   0.314101   0.048165
    12  H    0.485852  -0.147448   0.007258  -0.032185   0.020556   0.017615
    13  H    0.389926  -0.018590  -0.006327   0.006154  -0.002527   0.009564
    14  H   -0.016838   0.301678   0.021201   0.004841  -0.001861   0.023040
    15  H    0.004740   0.021464   0.361605   0.013608  -0.019610  -0.001113
    16  H    0.002528  -0.009032   0.012542   0.412919  -0.090514  -0.021721
    17  H    0.004190  -0.008412  -0.059479  -0.069815   0.438245  -0.004917
    18  H    0.017242  -0.074356  -0.020213  -0.119323   0.035367   0.487765
    19  H    0.014597  -0.034317  -0.006097  -0.040811   0.009011   0.052013
    20  H   -0.001210   0.012770  -0.009454   0.012427   0.039373  -0.061727
    21  H   -0.002596   0.005686  -0.033330   0.026353   0.019203  -0.009014
              7          8          9         10         11         12
     1  C   -0.037031   0.158618   0.029756   0.000608   0.020481   0.485852
     2  C    0.085698  -0.132279  -0.098949  -0.001803  -0.020621  -0.147448
     3  C    0.273826   0.341459  -0.006762   0.047563  -0.131815   0.007258
     4  C   -0.051667   0.030944  -0.087862   0.230235  -0.194444  -0.032185
     5  C   -0.072283  -0.213109   0.023462  -0.158702   0.314101   0.020556
     6  C   -0.057705   0.000514   0.227902  -0.052222   0.048165   0.017615
     7  O    8.345382  -0.053501   0.009558  -0.002256   0.008276   0.011199
     8  O   -0.053501   8.425383  -0.003856  -0.002850   0.012006  -0.043561
     9  O    0.009558  -0.003856   8.317497  -0.013231  -0.000284   0.005355
    10  O   -0.002256  -0.002850  -0.013231   8.378630   0.012181  -0.000020
    11  O    0.008276   0.012006  -0.000284   0.012181   8.359651  -0.000212
    12  H    0.011199  -0.043561   0.005355  -0.000020  -0.000212   0.535284
    13  H   -0.000636  -0.052166  -0.001202   0.000007   0.000102  -0.039417
    14  H   -0.031331   0.007079   0.001679  -0.000614   0.000077   0.002323
    15  H   -0.045556  -0.048051  -0.000073  -0.000621  -0.005425  -0.000264
    16  H    0.001309   0.001739  -0.013216  -0.045345   0.000840   0.000885
    17  H    0.006134   0.008519  -0.000378   0.003239  -0.045426  -0.000014
    18  H    0.005907  -0.000528  -0.063206   0.003271  -0.000140   0.000180
    19  H    0.000194  -0.000411   0.251786  -0.001274  -0.000041   0.001278
    20  H    0.000029   0.000265   0.016923   0.241113  -0.000897  -0.000009
    21  H    0.000189  -0.000936   0.000004  -0.001723   0.246408  -0.000003
             13         14         15         16         17         18
     1  C    0.389926  -0.016838   0.004740   0.002528   0.004190   0.017242
     2  C   -0.018590   0.301678   0.021464  -0.009032  -0.008412  -0.074356
     3  C   -0.006327   0.021201   0.361605   0.012542  -0.059479  -0.020213
     4  C    0.006154   0.004841   0.013608   0.412919  -0.069815  -0.119323
     5  C   -0.002527  -0.001861  -0.019610  -0.090514   0.438245   0.035367
     6  C    0.009564   0.023040  -0.001113  -0.021721  -0.004917   0.487765
     7  O   -0.000636  -0.031331  -0.045556   0.001309   0.006134   0.005907
     8  O   -0.052166   0.007079  -0.048051   0.001739   0.008519  -0.000528
     9  O   -0.001202   0.001679  -0.000073  -0.013216  -0.000378  -0.063206
    10  O    0.000007  -0.000614  -0.000621  -0.045345   0.003239   0.003271
    11  O    0.000102   0.000077  -0.005425   0.000840  -0.045426  -0.000140
    12  H   -0.039417   0.002323  -0.000264   0.000885  -0.000014   0.000180
    13  H    0.552732  -0.003408   0.000361   0.000004   0.000019  -0.000139
    14  H   -0.003408   0.517204  -0.000054  -0.000194  -0.000034  -0.006194
    15  H    0.000361  -0.000054   0.547797  -0.000222  -0.002802  -0.000080
    16  H    0.000004  -0.000194  -0.000222   0.561439   0.004728   0.004448
    17  H    0.000019  -0.000034  -0.002802   0.004728   0.555474   0.001550
    18  H   -0.000139  -0.006194  -0.000080   0.004448   0.001550   0.544225
    19  H   -0.000132  -0.000519   0.000000   0.004602   0.000006   0.006592
    20  H    0.000000  -0.000002   0.000005  -0.004389   0.000066  -0.001347
    21  H    0.000001   0.000000   0.002568   0.000117  -0.006618   0.000004
             19         20         21
     1  C    0.014597  -0.001210  -0.002596
     2  C   -0.034317   0.012770   0.005686
     3  C   -0.006097  -0.009454  -0.033330
     4  C   -0.040811   0.012427   0.026353
     5  C    0.009011   0.039373   0.019203
     6  C    0.052013  -0.061727  -0.009014
     7  O    0.000194   0.000029   0.000189
     8  O   -0.000411   0.000265  -0.000936
     9  O    0.251786   0.016923   0.000004
    10  O   -0.001274   0.241113  -0.001723
    11  O   -0.000041  -0.000897   0.246408
    12  H    0.001278  -0.000009  -0.000003
    13  H   -0.000132   0.000000   0.000001
    14  H   -0.000519  -0.000002   0.000000
    15  H    0.000000   0.000005   0.002568
    16  H    0.004602  -0.004389   0.000117
    17  H    0.000006   0.000066  -0.006618
    18  H    0.006592  -0.001347   0.000004
    19  H    0.340496  -0.000595   0.000000
    20  H   -0.000595   0.346342   0.000023
    21  H    0.000000   0.000023   0.337207
 Mulliken atomic charges:
              1
     1  C   -0.101481
     2  C    0.259965
     3  C   -0.003241
     4  C    0.079601
     5  C    0.122299
     6  C   -0.128338
     7  O   -0.395734
     8  O   -0.435278
     9  O   -0.594900
    10  O   -0.636188
    11  O   -0.622985
    12  H    0.175349
    13  H    0.165673
    14  H    0.181927
    15  H    0.171725
    16  H    0.176533
    17  H    0.175725
    18  H    0.178974
    19  H    0.403623
    20  H    0.410294
    21  H    0.416459
 Sum of Mulliken atomic charges =   0.00000
 Mulliken charges with hydrogens summed into heavy atoms:
              1
     1  C    0.239541
     2  C    0.441892
     3  C    0.168484
     4  C    0.256134
     5  C    0.298023
     6  C    0.050635
     7  O   -0.395734
     8  O   -0.435278
     9  O   -0.191277
    10  O   -0.225894
    11  O   -0.206526
 Sum of Mulliken charges with hydrogens summed into heavy atoms =   0.00000
 Electronic spatial extent (au):  <R**2>=           1471.6939
 Charge=              0.0000 electrons
 Dipole moment (field-independent basis, Debye):
    X=              0.5963    Y=             -2.7150    Z=             -0.2463  Tot=              2.7906
 Quadrupole moment (field-independent basis, Debye-Ang):
   XX=            -67.6038   YY=            -64.7937   ZZ=            -65.4134
   XY=              6.4855   XZ=              7.3510   YZ=              8.9772
 Traceless Quadrupole moment (field-independent basis, Debye-Ang):
   XX=             -1.6668   YY=              1.1433   ZZ=              0.5236
   XY=              6.4855   XZ=              7.3510   YZ=              8.9772
 Octapole moment (field-independent basis, Debye-Ang**2):
  XXX=              3.4919  YYY=            -13.3988  ZZZ=             -8.7421  XYY=             31.9282
  XXY=             21.4424  XXZ=             -2.0547  XZZ=            -15.9920  YZZ=             -5.7844
  YYZ=              5.4563  XYZ=              7.4344
 Hexadecapole moment (field-independent basis, Debye-Ang**3):
 XXXX=           -762.1905 YYYY=           -747.9752 ZZZZ=           -252.6470 XXXY=             -5.1193
 XXXZ=             43.3079 YYYX=             58.6201 YYYZ=             32.8335 ZZZX=             10.0216
 ZZZY=             17.6542 XXYY=           -260.7203 XXZZ=           -171.3378 YYZZ=           -168.1315
 XXYZ=             12.0883 YYXZ=             13.9430 ZZXY=             15.2933
 N-N= 7.216155105499D+02 E-N=-2.873111070013D+03  KE= 6.053278274940D+02

 Test job not archived.
 1\1\GINC-COMPUTE-8-7\SP\RB3LYP\6-31+G(d,p)\C6H10O5\ASAROTTI.IQUIR\15-A
 pr-2019\0\\# B3LYP/6-31+G** test scrf=(pcm,solvent=water,smd,dovacuum)
 \\comment\\0,1\C,0,-0.902045,1.611234,-0.885859\C,0,-0.13849,1.542142,
 0.442635\C,0,-1.510788,-0.202375,0.398243\C,0,0.864514,-0.708491,-0.19
 0225\C,0,-0.431132,-1.304241,0.362851\C,0,1.141197,0.687575,0.400784\O
 ,0,-1.087284,0.835274,1.265067\O,0,-1.675019,0.39686,-0.887849\O,0,2.2
 35594,1.312162,-0.266262\O,0,1.948195,-1.589265,0.079443\O,0,-0.80994,
 -2.392035,-0.472113\H,0,-0.257443,1.636904,-1.7712\H,0,-1.574386,2.475
 605,-0.914996\H,0,0.0544,2.518436,0.89028\H,0,-2.475648,-0.585385,0.74
 337\H,0,0.728374,-0.606579,-1.279309\H,0,-0.25917,-1.640514,1.395056\H
 ,0,1.476805,0.559487,1.434792\H,0,2.009151,1.409106,-1.206968\H,0,2.74
 9586,-1.118371,-0.207381\H,0,-1.483573,-2.907727,-0.000506\\Version=EM
 64L-G09RevC.01\State=1-A\HF=-610.8112179\RMSD=5.012e-09\Dipole=-0.2345
 979,1.0681603,-0.0969028\Quadrupole=-1.2393123,0.850041,0.3892713,4.82
 18329,-5.4652314,-6.6743712\PG=C01 [X(C6H10O5)]\\@


 CHINESE FORTUNE COOKIE OF JAN 1 1967 SAY....
 ALL THINGS ARE DIFFICULT BEFORE THEY ARE EASY.
 WE LEARN SO LITTLE AND FORGET SO MUCH.
 YOU WILL OVERCOME OBSTACLES TO ACHIEVE SUCCESS.
 AH SO.
 Job cpu time:  0 days  0 hours  9 minutes 12.3 seconds.
 File lengths (MBytes):  RWF=     56 Int=      0 D2E=      0 Chk=      4 Scr=      1
 Normal termination of Gaussian 09 at Mon Apr 15 19:04:42 2019.
