 Entering Gaussian System, Link 0=g09
 Input=/home/asarotti.iquir/SCF3/07_SRS_Levo06_OPTB_energy_b3lyp_smd.gjc
 Output=/home/asarotti.iquir/SCF3/07_SRS_Levo06_OPTB_energy_b3lyp_smd.log
 Initial command:
 /share/apps/Gaussian09/EM64T.SSE4.2-enabled/g09/l1.exe /tmp/Gau-28254.inp -scrdir=/tmp/
 Entering Link 1 = /share/apps/Gaussian09/EM64T.SSE4.2-enabled/g09/l1.exe PID=     28255.
  
 Copyright (c) 1988,1990,1992,1993,1995,1998,2003,2009,2011,
            Gaussian, Inc.  All Rights Reserved.
  
 This is part of the Gaussian(R) 09 program.  It is based on
 the Gaussian(R) 03 system (copyright 2003, Gaussian, Inc.),
 the Gaussian(R) 98 system (copyright 1998, Gaussian, Inc.),
 the Gaussian(R) 94 system (copyright 1995, Gaussian, Inc.),
 the Gaussian 92(TM) system (copyright 1992, Gaussian, Inc.),
 the Gaussian 90(TM) system (copyright 1990, Gaussian, Inc.),
 the Gaussian 88(TM) system (copyright 1988, Gaussian, Inc.),
 the Gaussian 86(TM) system (copyright 1986, Carnegie Mellon
 University), and the Gaussian 82(TM) system (copyright 1983,
 Carnegie Mellon University). Gaussian is a federally registered
 trademark of Gaussian, Inc.
  
 This software contains proprietary and confidential information,
 including trade secrets, belonging to Gaussian, Inc.
  
 This software is provided under written license and may be
 used, copied, transmitted, or stored only in accord with that
 written license.
  
 The following legend is applicable only to US Government
 contracts under FAR:
  
                    RESTRICTED RIGHTS LEGEND
  
 Use, reproduction and disclosure by the US Government is
 subject to restrictions as set forth in subparagraphs (a)
 and (c) of the Commercial Computer Software - Restricted
 Rights clause in FAR 52.227-19.
  
 Gaussian, Inc.
 340 Quinnipiac St., Bldg. 40, Wallingford CT 06492
  
  
 ---------------------------------------------------------------
 Warning -- This program may not be used in any manner that
 competes with the business of Gaussian, Inc. or will provide
 assistance to any competitor of Gaussian, Inc.  The licensee
 of this program is prohibited from giving any competitor of
 Gaussian, Inc. access to this program.  By using this program,
 the user acknowledges that Gaussian, Inc. is engaged in the
 business of creating and licensing software in the field of
 computational chemistry and represents and warrants to the
 licensee that it is not a competitor of Gaussian, Inc. and that
 it will not use this program in any manner prohibited above.
 ---------------------------------------------------------------
  

 Cite this work as:
 Gaussian 09, Revision C.01,
 M. J. Frisch, G. W. Trucks, H. B. Schlegel, G. E. Scuseria, 
 M. A. Robb, J. R. Cheeseman, G. Scalmani, V. Barone, B. Mennucci, 
 G. A. Petersson, H. Nakatsuji, M. Caricato, X. Li, H. P. Hratchian, 
 A. F. Izmaylov, J. Bloino, G. Zheng, J. L. Sonnenberg, M. Hada, 
 M. Ehara, K. Toyota, R. Fukuda, J. Hasegawa, M. Ishida, T. Nakajima, 
 Y. Honda, O. Kitao, H. Nakai, T. Vreven, J. A. Montgomery, Jr., 
 J. E. Peralta, F. Ogliaro, M. Bearpark, J. J. Heyd, E. Brothers, 
 K. N. Kudin, V. N. Staroverov, T. Keith, R. Kobayashi, J. Normand, 
 K. Raghavachari, A. Rendell, J. C. Burant, S. S. Iyengar, J. Tomasi, 
 M. Cossi, N. Rega, J. M. Millam, M. Klene, J. E. Knox, J. B. Cross, 
 V. Bakken, C. Adamo, J. Jaramillo, R. Gomperts, R. E. Stratmann, 
 O. Yazyev, A. J. Austin, R. Cammi, C. Pomelli, J. W. Ochterski, 
 R. L. Martin, K. Morokuma, V. G. Zakrzewski, G. A. Voth, 
 P. Salvador, J. J. Dannenberg, S. Dapprich, A. D. Daniels, 
 O. Farkas, J. B. Foresman, J. V. Ortiz, J. Cioslowski, 
 and D. J. Fox, Gaussian, Inc., Wallingford CT, 2010.
 
 ******************************************
 Gaussian 09:  EM64L-G09RevC.01 23-Sep-2011
                15-Apr-2019 
 ******************************************
 %nprocshared=4
 Will use up to    4 processors via shared memory.
 -----------------------------------------------------------
 # B3LYP/6-31+G** test scrf=(pcm,solvent=water,smd,dovacuum)
 -----------------------------------------------------------
 1/38=1/1;
 2/12=2,17=6,18=5,40=1/2;
 3/5=1,6=6,7=111,11=2,16=1,25=1,30=1,70=32101,72=1,74=-5/1,2,3;
 4//1;
 5/5=2,38=5,53=1/2;
 6/7=2,8=2,9=2,10=2,28=1/1;
 99/5=1,9=1/99;
 -------
 comment
 -------
 Charge =  0 Multiplicity = 1
 Symbolic Z-Matrix:
 6                    -1.84052   0.04997  -0.89413 
 6                    -1.40021   0.66233   0.44276 
 6                    -0.60375  -1.4137    0.38615 
 6                     1.03174   0.38248  -0.18521 
 6                     0.88395  -1.0349    0.37562 
 6                    -0.01419   1.33956   0.41048 
 8                    -1.27965  -0.52209   1.25544 
 8                    -1.1967   -1.23856  -0.90031 
 8                    -0.00581   2.6009   -0.25246 
 8                     2.36432   0.81314   0.0746 
 8                     1.60291  -1.98533  -0.39698 
 1                    -1.52413   0.62085  -1.77387 
 1                    -2.92697  -0.08331  -0.9332 
 1                    -2.1479    1.31873   0.89079 
 1                    -0.76297  -2.44125   0.72248 
 1                     0.86834   0.31588  -1.27241 
 1                     1.23047  -1.04125   1.42017 
 1                     0.26462   1.56034   1.44563 
 1                    -0.1983    2.45654  -1.19444 
 1                     2.45554   1.69772  -0.31746 
 1                     2.51849  -1.66314  -0.44408 
 
                          Input orientation:                          
 ---------------------------------------------------------------------
 Center     Atomic      Atomic             Coordinates (Angstroms)
 Number     Number       Type             X           Y           Z
 ---------------------------------------------------------------------
      1          6           0       -1.840519    0.049974   -0.894132
      2          6           0       -1.400207    0.662327    0.442759
      3          6           0       -0.603746   -1.413703    0.386146
      4          6           0        1.031745    0.382483   -0.185205
      5          6           0        0.883954   -1.034900    0.375617
      6          6           0       -0.014186    1.339559    0.410484
      7          8           0       -1.279650   -0.522093    1.255442
      8          8           0       -1.196703   -1.238564   -0.900307
      9          8           0       -0.005805    2.600897   -0.252462
     10          8           0        2.364321    0.813144    0.074602
     11          8           0        1.602906   -1.985326   -0.396976
     12          1           0       -1.524130    0.620853   -1.773874
     13          1           0       -2.926974   -0.083307   -0.933202
     14          1           0       -2.147901    1.318726    0.890794
     15          1           0       -0.762973   -2.441254    0.722478
     16          1           0        0.868342    0.315877   -1.272414
     17          1           0        1.230465   -1.041252    1.420174
     18          1           0        0.264624    1.560343    1.445626
     19          1           0       -0.198296    2.456540   -1.194441
     20          1           0        2.455541    1.697716   -0.317458
     21          1           0        2.518494   -1.663142   -0.444081
 ---------------------------------------------------------------------
                    Distance matrix (angstroms):
                    1          2          3          4          5
     1  C    0.000000
     2  C    1.534969   0.000000
     3  C    2.304576   2.224288   0.000000
     4  C    2.977086   2.527260   2.495507   0.000000
     5  C    3.195617   2.846485   1.535205   1.531450   0.000000
     6  C    2.588541   1.542964   2.815781   1.537794   2.538883
     7  O    2.294015   1.441471   1.416859   2.869890   2.391285
     8  O    1.440440   2.336370   1.427317   2.846954   2.449203
     9  O    3.207043   2.487115   4.108816   2.449978   3.795415
    10  O    4.381958   3.785493   3.723618   1.424334   2.386915
    11  O    4.030730   4.090710   2.410258   2.444911   1.420247
    12  H    1.095423   2.220482   3.106801   3.018805   3.627768
    13  H    1.095297   2.186380   2.984631   4.055603   4.140255
    14  H    2.211374   1.091165   3.178876   3.484892   3.872610
    15  H    3.159233   3.180649   1.092856   3.466755   2.193288
    16  H    2.748041   2.864989   2.812350   1.101436   2.130927
    17  H    3.997215   3.282980   2.138285   2.154937   1.100550
    18  H    3.491033   2.140990   3.274372   2.153007   2.874678
    19  H    2.928932   2.710021   4.200170   2.614053   3.978253
    20  H    4.637212   4.064081   4.419867   1.942813   3.227604
    21  H    4.705136   4.642253   3.240352   2.542051   1.933472
                    6          7          8          9         10
     6  C    0.000000
     7  O    2.404392   0.000000
     8  O    3.124618   2.273206   0.000000
     9  O    1.424971   3.694526   4.071781   0.000000
    10  O    2.459111   4.056571   4.223842   2.986725   0.000000
    11  O    3.784420   3.630519   2.940885   4.862332   2.938294
    12  H    2.750980   3.246976   2.080327   2.922427   4.309744
    13  H    3.509184   2.774234   2.080754   4.025119   5.460503
    14  H    2.187206   2.067714   3.263825   2.745828   4.613234
    15  H    3.866855   2.057713   2.065918   5.191059   4.559695
    16  H    2.158455   3.421421   2.611352   2.650613   2.073567
    17  H    2.869998   2.568529   3.363734   4.194201   2.556360
    18  H    1.094532   2.599518   3.933543   2.009823   2.616628
    19  H    1.964008   4.005435   3.838896   0.972222   3.298216
    20  H    2.599563   4.620954   4.722324   2.622629   0.971854
    21  H    4.020070   4.314657   3.767107   4.958914   2.534718
                   11         12         13         14         15
    11  O    0.000000
    12  H    4.297252   0.000000
    13  H    4.942168   1.780602   0.000000
    14  H    5.161750   2.824283   2.428912   0.000000
    15  H    2.656771   4.023386   3.603344   4.010462   0.000000
    16  H    2.569341   2.463411   3.831297   3.844853   3.773931
    17  H    2.081351   4.533468   4.872406   4.154888   2.533886
    18  H    4.214018   3.800982   4.306589   2.487266   4.194243
    19  H    4.859059   2.337376   3.736944   3.073074   5.289785
    20  H    3.781284   4.372478   5.702863   4.774430   5.345220
    21  H    0.971763   4.829885   5.691067   5.696373   3.568521
                   16         17         18         19         20
    16  H    0.000000
    17  H    3.036933   0.000000
    18  H    3.049740   2.775210   0.000000
    19  H    2.392955   4.594793   2.826202   0.000000
    20  H    2.310978   3.467293   2.815573   2.896164   0.000000
    21  H    2.706594   2.349726   4.363689   4.991570   3.363832
                   21
    21  H    0.000000
 Stoichiometry    C6H10O5
 Framework group  C1[X(C6H10O5)]
 Deg. of freedom    57
 Full point group                 C1      NOp   1
 Largest Abelian subgroup         C1      NOp   1
 Largest concise Abelian subgroup C1      NOp   1
                         Standard orientation:                         
 ---------------------------------------------------------------------
 Center     Atomic      Atomic             Coordinates (Angstroms)
 Number     Number       Type             X           Y           Z
 ---------------------------------------------------------------------
      1          6           0       -1.840519    0.049968   -0.894132
      2          6           0       -1.400209    0.662323    0.442759
      3          6           0       -0.603741   -1.413705    0.386146
      4          6           0        1.031744    0.382486   -0.185205
      5          6           0        0.883957   -1.034897    0.375617
      6          6           0       -0.014190    1.339559    0.410484
      7          8           0       -1.279648   -0.522097    1.255442
      8          8           0       -1.196699   -1.238568   -0.900307
      9          8           0       -0.005813    2.600897   -0.252462
     10          8           0        2.364319    0.813151    0.074602
     11          8           0        1.602912   -1.985321   -0.396976
     12          1           0       -1.524132    0.620848   -1.773874
     13          1           0       -2.926974   -0.083316   -0.933202
     14          1           0       -2.147905    1.318719    0.890794
     15          1           0       -0.762965   -2.441256    0.722478
     16          1           0        0.868341    0.315880   -1.272414
     17          1           0        1.230468   -1.041248    1.420174
     18          1           0        0.264619    1.560344    1.445626
     19          1           0       -0.198304    2.456539   -1.194441
     20          1           0        2.455536    1.697724   -0.317458
     21          1           0        2.518499   -1.663134   -0.444081
 ---------------------------------------------------------------------
 Rotational constants (GHZ):      1.3652282      1.3446212      0.8406937
 Standard basis: 6-31+G(d,p) (6D, 7F)
 There are   259 symmetry adapted basis functions of A   symmetry.
 Integral buffers will be    131072 words long.
 Raffenetti 2 integral format.
 Two-electron integral symmetry is turned on.
   259 basis functions,   422 primitive gaussians,   259 cartesian basis functions
    43 alpha electrons       43 beta electrons
       nuclear repulsion energy       722.0888186956 Hartrees.
 NAtoms=   21 NActive=   21 NUniq=   21 SFac= 1.00D+00 NAtFMM=   60 NAOKFM=F Big=F
 ------------------------------------------------------------------------------
 Polarizable Continuum Model (PCM)
 =================================
 Model                : C-PCM.
 Atomic radii         : SMD-Coulomb.
 Polarization charges : Total charges.
 Charge compensation  : None.
 Solution method      : Matrix inversion.
 Cavity type          : VdW (van der Waals Surface) (Alpha=1.000).
 Cavity algorithm     : GePol (No added spheres)
                        Default sphere list used, NSphG=   21.
                        Lebedev-Laikov grids with approx.  5.0 points / Ang**2.
                        Smoothing algorithm: Karplus/York (Gamma=1.0000).
                        Polarization charges: spherical gaussians, with
                                              point-specific exponents (IZeta= 3).
                        Self-potential: point-specific (ISelfS= 7).
                        Self-field    : sphere-specific E.n sum rule (ISelfD= 2).
 Solvent              : Water, Eps=  78.355300 Eps(inf)=   1.777849
 ------------------------------------------------------------------------------
 ------------------------------------------------------------------------------
 Atomic radii for non-electrostatic terms: SMD-CDS.
 ------------------------------------------------------------------------------
 Nuclear repulsion after PCM non-electrostatic terms =      722.0937839628 Hartrees.
 One-electron integrals computed using PRISM.
 NBasis=   259 RedAO= T  NBF=   259
 NBsUse=   259 1.00D-06 NBFU=   259
 Harris functional with IExCor=  402 diagonalized for initial guess.
 ExpMin= 4.38D-02 ExpMax= 5.48D+03 ExpMxC= 8.25D+02 IAcc=2 IRadAn=         4 AccDes= 0.00D+00
 HarFok:  IExCor=  402 AccDes= 0.00D+00 IRadAn=         4 IDoV= 1
 ScaDFX=  1.000000  1.000000  1.000000  1.000000
 FoFCou: FMM=F IPFlag=           0 FMFlag=      100000 FMFlg1=           0
         NFxFlg=           0 DoJE=T BraDBF=F KetDBF=T FulRan=T
         Omega=  0.000000  0.000000  1.000000  0.000000  0.000000 ICntrl=     500 IOpCl=  0
         NMat0=    1 NMatS0=    1 NMatT0=    0 NMatD0=    1 NMtDS0=    0 NMtDT0=    0
         I1Cent=           4 NGrid=           0.
 Petite list used in FoFCou.
 Initial guess orbital symmetries:
       Occupied  (A) (A) (A) (A) (A) (A) (A) (A) (A) (A) (A) (A)
                 (A) (A) (A) (A) (A) (A) (A) (A) (A) (A) (A) (A)
                 (A) (A) (A) (A) (A) (A) (A) (A) (A) (A) (A) (A)
                 (A) (A) (A) (A) (A) (A) (A)
       Virtual   (A) (A) (A) (A) (A) (A) (A) (A) (A) (A) (A) (A)
                 (A) (A) (A) (A) (A) (A) (A) (A) (A) (A) (A) (A)
                 (A) (A) (A) (A) (A) (A) (A) (A) (A) (A) (A) (A)
                 (A) (A) (A) (A) (A) (A) (A) (A) (A) (A) (A) (A)
                 (A) (A) (A) (A) (A) (A) (A) (A) (A) (A) (A) (A)
                 (A) (A) (A) (A) (A) (A) (A) (A) (A) (A) (A) (A)
                 (A) (A) (A) (A) (A) (A) (A) (A) (A) (A) (A) (A)
                 (A) (A) (A) (A) (A) (A) (A) (A) (A) (A) (A) (A)
                 (A) (A) (A) (A) (A) (A) (A) (A) (A) (A) (A) (A)
                 (A) (A) (A) (A) (A) (A) (A) (A) (A) (A) (A) (A)
                 (A) (A) (A) (A) (A) (A) (A) (A) (A) (A) (A) (A)
                 (A) (A) (A) (A) (A) (A) (A) (A) (A) (A) (A) (A)
                 (A) (A) (A) (A) (A) (A) (A) (A) (A) (A) (A) (A)
                 (A) (A) (A) (A) (A) (A) (A) (A) (A) (A) (A) (A)
                 (A) (A) (A) (A) (A) (A) (A) (A) (A) (A) (A) (A)
                 (A) (A) (A) (A) (A) (A) (A) (A) (A) (A) (A) (A)
                 (A) (A) (A) (A) (A) (A) (A) (A) (A) (A) (A) (A)
                 (A) (A) (A) (A) (A) (A) (A) (A) (A) (A) (A) (A)
 The electronic state of the initial guess is 1-A.
 Requested convergence on RMS density matrix=1.00D-08 within 128 cycles.
 Requested convergence on MAX density matrix=1.00D-06.
 Requested convergence on             energy=1.00D-06.
 No special actions if energy rises.
 Error on total polarization charges =  0.05892
 SCF Done:  E(RB3LYP) =  -610.811165125     A.U. after   12 cycles
             Convg  =    0.5309D-08             -V/T =  2.0090
 SMD-CDS (non-electrostatic) energy       (kcal/mol) =       3.12
 (included in total energy above)

 **********************************************************************

            Population analysis using the SCF density.

 **********************************************************************

 Orbital symmetries:
       Occupied  (A) (A) (A) (A) (A) (A) (A) (A) (A) (A) (A) (A)
                 (A) (A) (A) (A) (A) (A) (A) (A) (A) (A) (A) (A)
                 (A) (A) (A) (A) (A) (A) (A) (A) (A) (A) (A) (A)
                 (A) (A) (A) (A) (A) (A) (A)
       Virtual   (A) (A) (A) (A) (A) (A) (A) (A) (A) (A) (A) (A)
                 (A) (A) (A) (A) (A) (A) (A) (A) (A) (A) (A) (A)
                 (A) (A) (A) (A) (A) (A) (A) (A) (A) (A) (A) (A)
                 (A) (A) (A) (A) (A) (A) (A) (A) (A) (A) (A) (A)
                 (A) (A) (A) (A) (A) (A) (A) (A) (A) (A) (A) (A)
                 (A) (A) (A) (A) (A) (A) (A) (A) (A) (A) (A) (A)
                 (A) (A) (A) (A) (A) (A) (A) (A) (A) (A) (A) (A)
                 (A) (A) (A) (A) (A) (A) (A) (A) (A) (A) (A) (A)
                 (A) (A) (A) (A) (A) (A) (A) (A) (A) (A) (A) (A)
                 (A) (A) (A) (A) (A) (A) (A) (A) (A) (A) (A) (A)
                 (A) (A) (A) (A) (A) (A) (A) (A) (A) (A) (A) (A)
                 (A) (A) (A) (A) (A) (A) (A) (A) (A) (A) (A) (A)
                 (A) (A) (A) (A) (A) (A) (A) (A) (A) (A) (A) (A)
                 (A) (A) (A) (A) (A) (A) (A) (A) (A) (A) (A) (A)
                 (A) (A) (A) (A) (A) (A) (A) (A) (A) (A) (A) (A)
                 (A) (A) (A) (A) (A) (A) (A) (A) (A) (A) (A) (A)
                 (A) (A) (A) (A) (A) (A) (A) (A) (A) (A) (A) (A)
                 (A) (A) (A) (A) (A) (A) (A) (A) (A) (A) (A) (A)
 The electronic state is 1-A.
 Alpha  occ. eigenvalues --  -19.18600 -19.17620 -19.17409 -19.17165 -19.17075
 Alpha  occ. eigenvalues --  -10.29621 -10.25170 -10.24751 -10.24642 -10.24510
 Alpha  occ. eigenvalues --  -10.24085  -1.11282  -1.05221  -1.04042  -1.02545
 Alpha  occ. eigenvalues --   -1.01341  -0.79329  -0.78548  -0.68239  -0.65801
 Alpha  occ. eigenvalues --   -0.62092  -0.59345  -0.55655  -0.54068  -0.51958
 Alpha  occ. eigenvalues --   -0.49546  -0.48509  -0.47643  -0.45487  -0.44856
 Alpha  occ. eigenvalues --   -0.42099  -0.42070  -0.41021  -0.38450  -0.37604
 Alpha  occ. eigenvalues --   -0.36415  -0.35544  -0.34517  -0.32542  -0.30008
 Alpha  occ. eigenvalues --   -0.28730  -0.27731  -0.26972
 Alpha virt. eigenvalues --    0.00623   0.01346   0.01988   0.02757   0.04210
 Alpha virt. eigenvalues --    0.04841   0.05122   0.05620   0.05862   0.08409
 Alpha virt. eigenvalues --    0.08957   0.09652   0.10135   0.10758   0.11307
 Alpha virt. eigenvalues --    0.12015   0.12357   0.13838   0.14167   0.14628
 Alpha virt. eigenvalues --    0.14737   0.15407   0.16391   0.16851   0.17317
 Alpha virt. eigenvalues --    0.17733   0.18978   0.19469   0.20414   0.21071
 Alpha virt. eigenvalues --    0.21296   0.22220   0.22498   0.23361   0.23732
 Alpha virt. eigenvalues --    0.24269   0.24433   0.25172   0.25850   0.26231
 Alpha virt. eigenvalues --    0.27872   0.28191   0.28423   0.29434   0.29653
 Alpha virt. eigenvalues --    0.30658   0.31465   0.31706   0.32898   0.33110
 Alpha virt. eigenvalues --    0.33808   0.34444   0.35096   0.35636   0.36995
 Alpha virt. eigenvalues --    0.37853   0.38199   0.38535   0.39020   0.39127
 Alpha virt. eigenvalues --    0.39746   0.40807   0.41695   0.43985   0.45479
 Alpha virt. eigenvalues --    0.46559   0.63402   0.65237   0.66348   0.68113
 Alpha virt. eigenvalues --    0.70036   0.71982   0.74034   0.76195   0.76796
 Alpha virt. eigenvalues --    0.77711   0.80458   0.81327   0.82003   0.86501
 Alpha virt. eigenvalues --    0.86641   0.91494   0.95018   0.95991   0.97881
 Alpha virt. eigenvalues --    1.01842   1.02066   1.04099   1.05150   1.06007
 Alpha virt. eigenvalues --    1.07277   1.07387   1.09578   1.12124   1.14223
 Alpha virt. eigenvalues --    1.19206   1.21746   1.22748   1.23912   1.24481
 Alpha virt. eigenvalues --    1.26607   1.27492   1.29129   1.30927   1.31149
 Alpha virt. eigenvalues --    1.33570   1.35302   1.37345   1.38114   1.38899
 Alpha virt. eigenvalues --    1.41661   1.43389   1.44185   1.49184   1.50933
 Alpha virt. eigenvalues --    1.52394   1.53604   1.55019   1.56534   1.59491
 Alpha virt. eigenvalues --    1.61545   1.62801   1.64064   1.65111   1.66655
 Alpha virt. eigenvalues --    1.70271   1.72443   1.74977   1.77125   1.79263
 Alpha virt. eigenvalues --    1.80815   1.81752   1.84144   1.86128   1.87504
 Alpha virt. eigenvalues --    1.90482   1.92653   1.94973   1.95660   1.98153
 Alpha virt. eigenvalues --    2.00114   2.01540   2.04907   2.05572   2.06733
 Alpha virt. eigenvalues --    2.07409   2.10782   2.12328   2.13377   2.17069
 Alpha virt. eigenvalues --    2.19104   2.21003   2.22903   2.24733   2.29224
 Alpha virt. eigenvalues --    2.32133   2.36081   2.36325   2.38026   2.38669
 Alpha virt. eigenvalues --    2.43096   2.44969   2.47236   2.49688   2.51122
 Alpha virt. eigenvalues --    2.53491   2.55399   2.58917   2.61235   2.62388
 Alpha virt. eigenvalues --    2.63189   2.65263   2.65803   2.66847   2.68759
 Alpha virt. eigenvalues --    2.71469   2.73538   2.77373   2.79509   2.81472
 Alpha virt. eigenvalues --    2.83386   2.85288   2.87428   2.89193   2.92047
 Alpha virt. eigenvalues --    2.92651   2.94455   2.96501   3.01322   3.02507
 Alpha virt. eigenvalues --    3.04700   3.07713   3.09487   3.16578   3.23203
 Alpha virt. eigenvalues --    3.32943   3.36208   3.43081   3.44818   3.48175
 Alpha virt. eigenvalues --    3.50359   3.52475   3.53248   3.55752   3.60062
 Alpha virt. eigenvalues --    4.28206   4.34553   4.39101   4.41516   4.47563
 Alpha virt. eigenvalues --    4.56136   4.61940   4.71498   4.80858   4.87106
 Alpha virt. eigenvalues --    4.92510
          Condensed to atoms (all electrons):
              1          2          3          4          5          6
     1  C    5.555931  -0.269781  -0.424910  -0.213238   0.277030   0.113239
     2  C   -0.269781   6.668163  -0.294813   0.401860  -0.157915  -0.476074
     3  C   -0.424910  -0.294813   6.456443  -0.087713  -0.688247   0.217810
     4  C   -0.213238   0.401860  -0.087713   6.069942  -0.020836  -0.450648
     5  C    0.277030  -0.157915  -0.688247  -0.020836   6.357981  -0.187001
     6  C    0.113239  -0.476074   0.217810  -0.450648  -0.187001   6.274868
     7  O   -0.037994   0.074433   0.305836  -0.035112  -0.101287  -0.048293
     8  O    0.159167  -0.138467   0.363753   0.051645  -0.232489  -0.005947
     9  O    0.031720  -0.103194  -0.008507  -0.090751   0.016815   0.236193
    10  O   -0.001292  -0.001254   0.044328   0.206221  -0.086785  -0.089421
    11  O    0.014998  -0.007791  -0.175834  -0.126589   0.321490   0.019042
    12  H    0.486244  -0.153395   0.010013  -0.034850   0.020395   0.023070
    13  H    0.390648  -0.017212  -0.007142   0.006060  -0.001674   0.007950
    14  H   -0.016083   0.300579   0.021951   0.003958  -0.002267   0.024220
    15  H    0.003360   0.028168   0.339329   0.024567  -0.016175  -0.005339
    16  H    0.001415  -0.004731   0.008354   0.444103  -0.104750  -0.036916
    17  H    0.002405  -0.010926  -0.070864  -0.032156   0.406625   0.001617
    18  H    0.016571  -0.067182  -0.021866  -0.108099   0.029222   0.479164
    19  H    0.013300  -0.031514  -0.006186  -0.035964   0.008064   0.047616
    20  H   -0.000185   0.008467  -0.007382   0.018940   0.027611  -0.052516
    21  H   -0.000956  -0.004678   0.044489  -0.026627  -0.031331   0.016114
              7          8          9         10         11         12
     1  C   -0.037994   0.159167   0.031720  -0.001292   0.014998   0.486244
     2  C    0.074433  -0.138467  -0.103194  -0.001254  -0.007791  -0.153395
     3  C    0.305836   0.363753  -0.008507   0.044328  -0.175834   0.010013
     4  C   -0.035112   0.051645  -0.090751   0.206221  -0.126589  -0.034850
     5  C   -0.101287  -0.232489   0.016815  -0.086785   0.321490   0.020395
     6  C   -0.048293  -0.005947   0.236193  -0.089421   0.019042   0.023070
     7  O    8.332989  -0.054685   0.009714  -0.002128   0.007886   0.011165
     8  O   -0.054685   8.411281  -0.003531  -0.003320   0.020294  -0.043598
     9  O    0.009714  -0.003531   8.316735  -0.006240  -0.000146   0.005129
    10  O   -0.002128  -0.003320  -0.006240   8.387761  -0.013838   0.000000
    11  O    0.007886   0.020294  -0.000146  -0.013838   8.345431  -0.000229
    12  H    0.011165  -0.043598   0.005129   0.000000  -0.000229   0.535135
    13  H   -0.000455  -0.052248  -0.001197   0.000008   0.000120  -0.039233
    14  H   -0.031434   0.006984   0.001816  -0.000554   0.000067   0.002349
    15  H   -0.043426  -0.048156  -0.000048  -0.000719   0.002598  -0.000263
    16  H    0.000859   0.001673  -0.012294  -0.046873   0.001435   0.000883
    17  H    0.003831   0.007773  -0.000444   0.002472  -0.045635  -0.000013
    18  H    0.005603  -0.000505  -0.063156   0.002169  -0.000115   0.000179
    19  H    0.000141  -0.000430   0.251152  -0.001950  -0.000076   0.001364
    20  H   -0.000028   0.000280   0.012423   0.242126   0.000970  -0.000009
    21  H   -0.000568  -0.001918  -0.000049   0.012989   0.245925   0.000002
             13         14         15         16         17         18
     1  C    0.390648  -0.016083   0.003360   0.001415   0.002405   0.016571
     2  C   -0.017212   0.300579   0.028168  -0.004731  -0.010926  -0.067182
     3  C   -0.007142   0.021951   0.339329   0.008354  -0.070864  -0.021866
     4  C    0.006060   0.003958   0.024567   0.444103  -0.032156  -0.108099
     5  C   -0.001674  -0.002267  -0.016175  -0.104750   0.406625   0.029222
     6  C    0.007950   0.024220  -0.005339  -0.036916   0.001617   0.479164
     7  O   -0.000455  -0.031434  -0.043426   0.000859   0.003831   0.005603
     8  O   -0.052248   0.006984  -0.048156   0.001673   0.007773  -0.000505
     9  O   -0.001197   0.001816  -0.000048  -0.012294  -0.000444  -0.063156
    10  O    0.000008  -0.000554  -0.000719  -0.046873   0.002472   0.002169
    11  O    0.000120   0.000067   0.002598   0.001435  -0.045635  -0.000115
    12  H   -0.039233   0.002349  -0.000263   0.000883  -0.000013   0.000179
    13  H    0.551300  -0.003518   0.000343   0.000019   0.000020  -0.000135
    14  H   -0.003518   0.516969  -0.000055  -0.000206  -0.000052  -0.006201
    15  H    0.000343  -0.000055   0.546896  -0.000207  -0.003172  -0.000071
    16  H    0.000019  -0.000206  -0.000207   0.558170   0.004601   0.004492
    17  H    0.000020  -0.000052  -0.003172   0.004601   0.566060   0.001604
    18  H   -0.000135  -0.006201  -0.000071   0.004492   0.001604   0.546121
    19  H   -0.000135  -0.000529   0.000000   0.004539   0.000004   0.006651
    20  H    0.000000  -0.000001   0.000004  -0.005061   0.000033  -0.000702
    21  H    0.000000   0.000000  -0.000175  -0.001062  -0.004828  -0.000002
             19         20         21
     1  C    0.013300  -0.000185  -0.000956
     2  C   -0.031514   0.008467  -0.004678
     3  C   -0.006186  -0.007382   0.044489
     4  C   -0.035964   0.018940  -0.026627
     5  C    0.008064   0.027611  -0.031331
     6  C    0.047616  -0.052516   0.016114
     7  O    0.000141  -0.000028  -0.000568
     8  O   -0.000430   0.000280  -0.001918
     9  O    0.251152   0.012423  -0.000049
    10  O   -0.001950   0.242126   0.012989
    11  O   -0.000076   0.000970   0.245925
    12  H    0.001364  -0.000009   0.000002
    13  H   -0.000135   0.000000   0.000000
    14  H   -0.000529  -0.000001   0.000000
    15  H    0.000000   0.000004  -0.000175
    16  H    0.004539  -0.005061  -0.001062
    17  H    0.000004   0.000033  -0.004828
    18  H    0.006651  -0.000702  -0.000002
    19  H    0.342466  -0.000286   0.000000
    20  H   -0.000286   0.340761  -0.000516
    21  H    0.000000  -0.000516   0.344024
 Mulliken atomic charges:
              1
     1  C   -0.101588
     2  C    0.257255
     3  C   -0.018842
     4  C    0.035288
     5  C    0.165523
     6  C   -0.108748
     7  O   -0.397046
     8  O   -0.437556
     9  O   -0.592142
    10  O   -0.643700
    11  O   -0.610004
    12  H    0.175663
    13  H    0.166483
    14  H    0.182008
    15  H    0.172538
    16  H    0.181558
    17  H    0.171043
    18  H    0.176260
    19  H    0.401774
    20  H    0.415069
    21  H    0.409166
 Sum of Mulliken atomic charges =   0.00000
 Mulliken charges with hydrogens summed into heavy atoms:
              1
     1  C    0.240558
     2  C    0.439263
     3  C    0.153695
     4  C    0.216846
     5  C    0.336566
     6  C    0.067511
     7  O   -0.397046
     8  O   -0.437556
     9  O   -0.190368
    10  O   -0.228631
    11  O   -0.200838
 Sum of Mulliken charges with hydrogens summed into heavy atoms =   0.00000
 Electronic spatial extent (au):  <R**2>=           1470.8182
 Charge=              0.0000 electrons
 Dipole moment (field-independent basis, Debye):
    X=             -0.7013    Y=              3.4814    Z=             -1.6839  Tot=              3.9303
 Quadrupole moment (field-independent basis, Debye-Ang):
   XX=            -62.1563   YY=            -73.6351   ZZ=            -64.6707
   XY=             -2.0223   XZ=              0.2561   YZ=             -9.0740
 Traceless Quadrupole moment (field-independent basis, Debye-Ang):
   XX=              4.6644   YY=             -6.8144   ZZ=              2.1500
   XY=             -2.0223   XZ=              0.2561   YZ=             -9.0740
 Octapole moment (field-independent basis, Debye-Ang**2):
  XXX=              1.3490  YYY=             -5.1799  ZZZ=             -9.4890  XYY=              2.9007
  XXY=              8.6709  XXZ=            -12.8872  XZZ=              5.2770  YZZ=             16.3792
  YYZ=              1.2699  XYZ=             -2.4583
 Hexadecapole moment (field-independent basis, Debye-Ang**3):
 XXXX=           -741.9277 YYYY=           -885.1436 ZZZZ=           -251.1737 XXXY=            -26.3607
 XXXZ=            -19.0290 YYYX=             40.7692 YYYZ=            -48.4317 ZZZX=              7.1176
 ZZZY=            -15.9281 XXYY=           -238.7567 XXZZ=           -177.5418 YYZZ=           -154.6418
 XXYZ=             -6.2342 YYXZ=             -9.7887 ZZXY=             -9.8799
 N-N= 7.220937839628D+02 E-N=-2.873865843375D+03  KE= 6.053374751881D+02

 Test job not archived.
 1\1\GINC-COMPUTE-10-2\SP\RB3LYP\6-31+G(d,p)\C6H10O5\ROOT\15-Apr-2019\0
 \\# B3LYP/6-31+G** test scrf=(pcm,solvent=water,smd,dovacuum)\\comment
 \\0,1\C,0,-1.840519,0.049974,-0.894132\C,0,-1.400207,0.662327,0.442759
 \C,0,-0.603746,-1.413703,0.386146\C,0,1.031745,0.382483,-0.185205\C,0,
 0.883954,-1.0349,0.375617\C,0,-0.014186,1.339559,0.410484\O,0,-1.27965
 ,-0.522093,1.255442\O,0,-1.196703,-1.238564,-0.900307\O,0,-0.005805,2.
 600897,-0.252462\O,0,2.364321,0.813144,0.074602\O,0,1.602906,-1.985326
 ,-0.396976\H,0,-1.52413,0.620853,-1.773874\H,0,-2.926974,-0.083307,-0.
 933202\H,0,-2.147901,1.318726,0.890794\H,0,-0.762973,-2.441254,0.72247
 8\H,0,0.868342,0.315877,-1.272414\H,0,1.230465,-1.041252,1.420174\H,0,
 0.264624,1.560343,1.445626\H,0,-0.198296,2.45654,-1.194441\H,0,2.45554
 1,1.697716,-0.317458\H,0,2.518494,-1.663142,-0.444081\\Version=EM64L-G
 09RevC.01\State=1-A\HF=-610.8111651\RMSD=5.309e-09\Dipole=-0.2759255,1
 .3696772,-0.662503\Quadrupole=3.4678724,-5.0663463,1.598474,-1.5035589
 ,0.1903519,-6.7463143\PG=C01 [X(C6H10O5)]\\@


 THE MORE POWERFUL THE METHOD, THE MORE CATASTROPHIC THE ERRORS.
     -- M.D. KAMEN
 Job cpu time:  0 days  0 hours  5 minutes 41.1 seconds.
 File lengths (MBytes):  RWF=     56 Int=      0 D2E=      0 Chk=      4 Scr=      1
 Normal termination of Gaussian 09 at Mon Apr 15 18:47:34 2019.
