 Entering Gaussian System, Link 0=g09
 Input=/home/mmarcarino.iquir/NMR/08_SRR_Levo15_OPTB_nmr.gjc
 Output=/home/mmarcarino.iquir/NMR/08_SRR_Levo15_OPTB_nmr.log
 Initial command:
 /share/apps/Gaussian09/EM64T.SSE4.2-enabled/g09/l1.exe /tmp/Gau-1621.inp -scrdir=/tmp/
 Entering Link 1 = /share/apps/Gaussian09/EM64T.SSE4.2-enabled/g09/l1.exe PID=      1622.
  
 Copyright (c) 1988,1990,1992,1993,1995,1998,2003,2009,2011,
            Gaussian, Inc.  All Rights Reserved.
  
 This is part of the Gaussian(R) 09 program.  It is based on
 the Gaussian(R) 03 system (copyright 2003, Gaussian, Inc.),
 the Gaussian(R) 98 system (copyright 1998, Gaussian, Inc.),
 the Gaussian(R) 94 system (copyright 1995, Gaussian, Inc.),
 the Gaussian 92(TM) system (copyright 1992, Gaussian, Inc.),
 the Gaussian 90(TM) system (copyright 1990, Gaussian, Inc.),
 the Gaussian 88(TM) system (copyright 1988, Gaussian, Inc.),
 the Gaussian 86(TM) system (copyright 1986, Carnegie Mellon
 University), and the Gaussian 82(TM) system (copyright 1983,
 Carnegie Mellon University). Gaussian is a federally registered
 trademark of Gaussian, Inc.
  
 This software contains proprietary and confidential information,
 including trade secrets, belonging to Gaussian, Inc.
  
 This software is provided under written license and may be
 used, copied, transmitted, or stored only in accord with that
 written license.
  
 The following legend is applicable only to US Government
 contracts under FAR:
  
                    RESTRICTED RIGHTS LEGEND
  
 Use, reproduction and disclosure by the US Government is
 subject to restrictions as set forth in subparagraphs (a)
 and (c) of the Commercial Computer Software - Restricted
 Rights clause in FAR 52.227-19.
  
 Gaussian, Inc.
 340 Quinnipiac St., Bldg. 40, Wallingford CT 06492
  
  
 ---------------------------------------------------------------
 Warning -- This program may not be used in any manner that
 competes with the business of Gaussian, Inc. or will provide
 assistance to any competitor of Gaussian, Inc.  The licensee
 of this program is prohibited from giving any competitor of
 Gaussian, Inc. access to this program.  By using this program,
 the user acknowledges that Gaussian, Inc. is engaged in the
 business of creating and licensing software in the field of
 computational chemistry and represents and warrants to the
 licensee that it is not a competitor of Gaussian, Inc. and that
 it will not use this program in any manner prohibited above.
 ---------------------------------------------------------------
  

 Cite this work as:
 Gaussian 09, Revision C.01,
 M. J. Frisch, G. W. Trucks, H. B. Schlegel, G. E. Scuseria, 
 M. A. Robb, J. R. Cheeseman, G. Scalmani, V. Barone, B. Mennucci, 
 G. A. Petersson, H. Nakatsuji, M. Caricato, X. Li, H. P. Hratchian, 
 A. F. Izmaylov, J. Bloino, G. Zheng, J. L. Sonnenberg, M. Hada, 
 M. Ehara, K. Toyota, R. Fukuda, J. Hasegawa, M. Ishida, T. Nakajima, 
 Y. Honda, O. Kitao, H. Nakai, T. Vreven, J. A. Montgomery, Jr., 
 J. E. Peralta, F. Ogliaro, M. Bearpark, J. J. Heyd, E. Brothers, 
 K. N. Kudin, V. N. Staroverov, T. Keith, R. Kobayashi, J. Normand, 
 K. Raghavachari, A. Rendell, J. C. Burant, S. S. Iyengar, J. Tomasi, 
 M. Cossi, N. Rega, J. M. Millam, M. Klene, J. E. Knox, J. B. Cross, 
 V. Bakken, C. Adamo, J. Jaramillo, R. Gomperts, R. E. Stratmann, 
 O. Yazyev, A. J. Austin, R. Cammi, C. Pomelli, J. W. Ochterski, 
 R. L. Martin, K. Morokuma, V. G. Zakrzewski, G. A. Voth, 
 P. Salvador, J. J. Dannenberg, S. Dapprich, A. D. Daniels, 
 O. Farkas, J. B. Foresman, J. V. Ortiz, J. Cioslowski, 
 and D. J. Fox, Gaussian, Inc., Wallingford CT, 2010.
 
 ******************************************
 Gaussian 09:  EM64L-G09RevC.01 23-Sep-2011
                12-Apr-2019 
 ******************************************
 %nprocshared=4
 Will use up to    4 processors via shared memory.
 ------------------------------------------------
 # mpw1pw91/6-31+g** nmr scrf=(pcm,solvent=water)
 ------------------------------------------------
 1/38=1/1;
 2/12=2,17=6,18=5,40=1/2;
 3/5=1,6=6,7=111,11=2,16=1,25=1,30=1,70=2201,72=1,74=-7/1,2,8,3;
 4//1;
 5/5=2,38=5,53=1/2;
 8/6=1,10=90,11=11/1;
 10/13=100,45=16/2;
 6/7=2,8=2,9=2,10=2,28=1/1;
 99/9=1/99;
 -------
 comment
 -------
 Charge =  0 Multiplicity = 1
 Symbolic Z-Matrix:
 6                     1.38135  -1.59885  -0.44471 
 6                     0.00061  -1.41588   0.19199 
 6                     1.22159   0.31896   0.83856 
 6                    -0.99592   0.88681  -0.28208 
 6                     0.39736   1.4273    0.12266 
 6                    -0.98758  -0.60892  -0.69592 
 8                     0.36521  -0.66107   1.37143 
 8                     2.03829  -0.34948  -0.14243 
 8                    -2.30477  -1.1296   -0.63603 
 8                    -1.90589   0.98656   0.82755 
 8                     1.11356   1.94404  -0.98751 
 1                     1.35977  -1.74152  -1.52779 
 1                     1.93337  -2.42047   0.02361 
 1                    -0.46213  -2.34822   0.5178 
 1                     1.86455   0.70765   1.63068 
 1                    -1.3621    1.48696  -1.12144 
 1                     0.22448   2.25268   0.82172 
 1                    -0.66766  -0.68609  -1.74083 
 1                    -2.71599  -0.64469   0.10705 
 1                    -2.419     1.8022    0.72297 
 1                     1.68907   1.21144  -1.28091 
 
                          Input orientation:                          
 ---------------------------------------------------------------------
 Center     Atomic      Atomic             Coordinates (Angstroms)
 Number     Number       Type             X           Y           Z
 ---------------------------------------------------------------------
      1          6           0        1.381351   -1.598849   -0.444707
      2          6           0        0.000608   -1.415884    0.191992
      3          6           0        1.221586    0.318964    0.838562
      4          6           0       -0.995919    0.886807   -0.282076
      5          6           0        0.397363    1.427299    0.122656
      6          6           0       -0.987576   -0.608915   -0.695918
      7          8           0        0.365205   -0.661069    1.371433
      8          8           0        2.038290   -0.349484   -0.142431
      9          8           0       -2.304773   -1.129601   -0.636033
     10          8           0       -1.905886    0.986555    0.827549
     11          8           0        1.113558    1.944040   -0.987509
     12          1           0        1.359772   -1.741521   -1.527794
     13          1           0        1.933367   -2.420468    0.023612
     14          1           0       -0.462126   -2.348216    0.517796
     15          1           0        1.864554    0.707650    1.630683
     16          1           0       -1.362100    1.486960   -1.121436
     17          1           0        0.224480    2.252676    0.821724
     18          1           0       -0.667664   -0.686088   -1.740828
     19          1           0       -2.715990   -0.644690    0.107047
     20          1           0       -2.419003    1.802201    0.722968
     21          1           0        1.689073    1.211440   -1.280906
 ---------------------------------------------------------------------
                    Distance matrix (angstroms):
                    1          2          3          4          5
     1  C    0.000000
     2  C    1.531441   0.000000
     3  C    2.313074   2.217778   0.000000
     4  C    3.443305   2.553467   2.548647   0.000000
     5  C    3.232291   2.871570   1.555722   1.548281   0.000000
     6  C    2.579708   1.554378   2.845344   1.551940   2.595050
     7  O    2.282619   1.446982   1.406344   2.642474   2.433466
     8  O    1.443556   2.324047   1.440894   3.279381   2.433078
     9  O    3.720794   2.466245   4.087539   2.429874   3.796694
    10  O    4.371370   3.132150   3.197949   1.438491   2.448691
    11  O    3.594219   3.730814   2.446850   2.462777   1.418599
    12  H    1.092657   2.216084   3.140754   3.742887   3.700221
    13  H    1.095035   2.184742   2.945380   4.428570   4.144204
    14  H    2.210514   1.090648   3.170430   3.374923   3.892219
    15  H    3.140170   3.170729   1.091760   3.445729   2.223666
    16  H    4.184101   3.465338   3.446917   1.094896   2.155698
    17  H    4.216212   3.728943   2.175717   2.138538   1.095368
    18  H    2.590661   2.171401   3.351514   2.170186   3.012185
    19  H    4.243001   2.825219   4.119253   2.335711   3.739833
    20  H    5.231950   4.061099   3.932841   1.968052   2.903936
    21  H    2.948160   3.452995   2.346743   2.883094   1.919660
                    6          7          8          9         10
     6  C    0.000000
     7  O    2.471169   0.000000
     8  O    3.086992   2.277736   0.000000
     9  O    1.417642   3.373162   4.440093   0.000000
    10  O    2.389512   2.858029   4.275791   2.603709   0.000000
    11  O    3.319242   3.593220   2.613339   4.610400   3.650788
    12  H    2.735847   3.249932   2.077832   3.820808   4.863596
    13  H    3.511603   2.715002   2.080277   4.479207   5.195574
    14  H    2.185033   2.063889   3.268472   2.492327   3.647066
    15  H    3.909100   2.046619   2.071630   5.088888   3.865104
    16  H    2.171181   3.716451   3.986682   2.823232   2.084383
    17  H    3.458471   2.968483   3.315228   4.467882   2.478216
    18  H    1.095507   3.279270   3.160753   2.024204   3.305675
    19  H    1.906160   3.330571   4.769965   0.977960   1.958661
    20  H    3.142563   3.773595   5.024552   3.233480   0.969280
    21  H    3.289431   3.506254   1.963304   4.674092   4.173714
                   11         12         13         14         15
    11  O    0.000000
    12  H    3.733080   0.000000
    13  H    4.554490   1.787971   0.000000
    14  H    4.813750   2.805678   2.447003   0.000000
    15  H    2.991251   4.028551   3.517461   3.998784   0.000000
    16  H    2.521060   4.242264   5.238247   4.266803   4.311934
    17  H    2.039372   4.771031   5.039400   4.661760   2.394026
    18  H    3.264631   2.295609   3.589803   2.811814   4.440914
    19  H    4.750265   4.526321   4.977637   2.854929   5.013150
    20  H    3.927447   5.648277   6.104356   4.593193   4.513408
    21  H    0.976730   2.981505   3.866808   4.531461   2.960059
                   16         17         18         19         20
    16  H    0.000000
    17  H    2.622866   0.000000
    18  H    2.363900   3.999866   0.000000
    19  H    2.808224   4.189494   2.758984   0.000000
    20  H    2.149011   2.683409   3.915234   2.540637   0.000000
    21  H    3.067735   2.765910   3.060449   4.977571   4.608774
                   21
    21  H    0.000000
 Stoichiometry    C6H10O5
 Framework group  C1[X(C6H10O5)]
 Deg. of freedom    57
 Full point group                 C1      NOp   1
 Largest Abelian subgroup         C1      NOp   1
 Largest concise Abelian subgroup C1      NOp   1
                         Standard orientation:                         
 ---------------------------------------------------------------------
 Center     Atomic      Atomic             Coordinates (Angstroms)
 Number     Number       Type             X           Y           Z
 ---------------------------------------------------------------------
      1          6           0        1.381351   -1.598849   -0.444707
      2          6           0        0.000608   -1.415884    0.191992
      3          6           0        1.221586    0.318964    0.838562
      4          6           0       -0.995919    0.886807   -0.282076
      5          6           0        0.397363    1.427299    0.122656
      6          6           0       -0.987576   -0.608915   -0.695918
      7          8           0        0.365205   -0.661069    1.371433
      8          8           0        2.038290   -0.349484   -0.142431
      9          8           0       -2.304773   -1.129602   -0.636033
     10          8           0       -1.905886    0.986555    0.827549
     11          8           0        1.113558    1.944040   -0.987509
     12          1           0        1.359772   -1.741521   -1.527794
     13          1           0        1.933368   -2.420468    0.023612
     14          1           0       -0.462125   -2.348216    0.517796
     15          1           0        1.864554    0.707650    1.630683
     16          1           0       -1.362100    1.486960   -1.121436
     17          1           0        0.224480    2.252676    0.821724
     18          1           0       -0.667664   -0.686088   -1.740828
     19          1           0       -2.715990   -0.644691    0.107047
     20          1           0       -2.419003    1.802200    0.722968
     21          1           0        1.689073    1.211440   -1.280906
 ---------------------------------------------------------------------
 Rotational constants (GHZ):      1.5725150      1.2029494      0.9130948
 Standard basis: 6-31+G(d,p) (6D, 7F)
 There are   259 symmetry adapted basis functions of A   symmetry.
 Integral buffers will be    131072 words long.
 Raffenetti 2 integral format.
 Two-electron integral symmetry is turned on.
   259 basis functions,   422 primitive gaussians,   259 cartesian basis functions
    43 alpha electrons       43 beta electrons
       nuclear repulsion energy       728.0659972616 Hartrees.
 NAtoms=   21 NActive=   21 NUniq=   21 SFac= 1.00D+00 NAtFMM=   60 NAOKFM=F Big=F
 ------------------------------------------------------------------------------
 Polarizable Continuum Model (PCM)
 =================================
 Model                : PCM.
 Atomic radii         : UFF (Universal Force Field).
 Polarization charges : Total charges.
 Charge compensation  : None.
 Solution method      : Matrix inversion.
 Cavity type          : Scaled VdW (van der Waals Surface) (Alpha=1.100).
 Cavity algorithm     : GePol (No added spheres)
                        Default sphere list used, NSphG=   21.
                        Lebedev-Laikov grids with approx.  5.0 points / Ang**2.
                        Smoothing algorithm: Karplus/York (Gamma=1.0000).
                        Polarization charges: spherical gaussians, with
                                              point-specific exponents (IZeta= 3).
                        Self-potential: point-specific (ISelfS= 7).
                        Self-field    : sphere-specific E.n sum rule (ISelfD= 2).
 Solvent              : Water, Eps=  78.355300 Eps(inf)=   1.777849
 ------------------------------------------------------------------------------
 One-electron integrals computed using PRISM.
 NBasis=   259 RedAO= T  NBF=   259
 NBsUse=   259 1.00D-06 NBFU=   259
 Harris functional with IExCor=  908 diagonalized for initial guess.
 ExpMin= 4.38D-02 ExpMax= 5.48D+03 ExpMxC= 8.25D+02 IAcc=2 IRadAn=         4 AccDes= 0.00D+00
 HarFok:  IExCor=  908 AccDes= 0.00D+00 IRadAn=         4 IDoV= 1
 ScaDFX=  1.000000  1.000000  1.000000  1.000000
 FoFCou: FMM=F IPFlag=           0 FMFlag=      100000 FMFlg1=           0
         NFxFlg=           0 DoJE=T BraDBF=F KetDBF=T FulRan=T
         Omega=  0.000000  0.000000  1.000000  0.000000  0.000000 ICntrl=     500 IOpCl=  0
         NMat0=    1 NMatS0=    1 NMatT0=    0 NMatD0=    1 NMtDS0=    0 NMtDT0=    0
         I1Cent=           4 NGrid=           0.
 Petite list used in FoFCou.
 Initial guess orbital symmetries:
       Occupied  (A) (A) (A) (A) (A) (A) (A) (A) (A) (A) (A) (A)
                 (A) (A) (A) (A) (A) (A) (A) (A) (A) (A) (A) (A)
                 (A) (A) (A) (A) (A) (A) (A) (A) (A) (A) (A) (A)
                 (A) (A) (A) (A) (A) (A) (A)
       Virtual   (A) (A) (A) (A) (A) (A) (A) (A) (A) (A) (A) (A)
                 (A) (A) (A) (A) (A) (A) (A) (A) (A) (A) (A) (A)
                 (A) (A) (A) (A) (A) (A) (A) (A) (A) (A) (A) (A)
                 (A) (A) (A) (A) (A) (A) (A) (A) (A) (A) (A) (A)
                 (A) (A) (A) (A) (A) (A) (A) (A) (A) (A) (A) (A)
                 (A) (A) (A) (A) (A) (A) (A) (A) (A) (A) (A) (A)
                 (A) (A) (A) (A) (A) (A) (A) (A) (A) (A) (A) (A)
                 (A) (A) (A) (A) (A) (A) (A) (A) (A) (A) (A) (A)
                 (A) (A) (A) (A) (A) (A) (A) (A) (A) (A) (A) (A)
                 (A) (A) (A) (A) (A) (A) (A) (A) (A) (A) (A) (A)
                 (A) (A) (A) (A) (A) (A) (A) (A) (A) (A) (A) (A)
                 (A) (A) (A) (A) (A) (A) (A) (A) (A) (A) (A) (A)
                 (A) (A) (A) (A) (A) (A) (A) (A) (A) (A) (A) (A)
                 (A) (A) (A) (A) (A) (A) (A) (A) (A) (A) (A) (A)
                 (A) (A) (A) (A) (A) (A) (A) (A) (A) (A) (A) (A)
                 (A) (A) (A) (A) (A) (A) (A) (A) (A) (A) (A) (A)
                 (A) (A) (A) (A) (A) (A) (A) (A) (A) (A) (A) (A)
                 (A) (A) (A) (A) (A) (A) (A) (A) (A) (A) (A) (A)
 The electronic state of the initial guess is 1-A.
 Requested convergence on RMS density matrix=1.00D-08 within 128 cycles.
 Requested convergence on MAX density matrix=1.00D-06.
 Requested convergence on             energy=1.00D-06.
 No special actions if energy rises.
 Error on total polarization charges =  0.01160
 SCF Done:  E(RmPW1PW91) =  -610.644547824     A.U. after   12 cycles
             Convg  =    0.5431D-08             -V/T =  2.0090
 Range of M.O.s used for correlation:     1   259
 NBasis=   259 NAE=    43 NBE=    43 NFC=     0 NFV=     0
 NROrb=    259 NOA=    43 NOB=    43 NVA=   216 NVB=   216

 **** Warning!!: The largest alpha MO coefficient is  0.51760366D+02

 NEqPCM:  Using equilibrium solvation (IEInf=0, Eps=  78.3553, EpsInf=   1.7778)
          Differentiating once with respect to magnetic field using GIAOs.
          Electric field/nuclear overlap derivatives assumed to be zero.
 FoFCou: FMM=F IPFlag=           0 FMFlag=    10101102 FMFlg1=           0
         NFxFlg=    40000000 DoJE=F BraDBF=F KetDBF=T FulRan=T
         Omega=  0.000000  0.000000  1.000000  0.000000  0.000000 ICntrl=    6100 IOpCl=  0
         NMat0=    1 NMatS0=    1 NMatT0=    0 NMatD0=    1 NMtDS0=    0 NMtDT0=    0
         I1Cent=           7 NGrid=        1551.
 Symmetry not used in FoFCou.
          There are     3 degrees of freedom in the 1st order CPHF.  IDoFFX=0.
      3 vectors produced by pass  0 Test12= 3.10D-13 3.33D-08 XBig12= 2.33D+01 1.06D+00.
 AX will form     3 AO Fock derivatives at one time.
      3 vectors produced by pass  1 Test12= 3.10D-13 3.33D-08 XBig12= 4.91D-02 2.91D-02.
      3 vectors produced by pass  2 Test12= 3.10D-13 3.33D-08 XBig12= 1.02D-04 1.29D-03.
      3 vectors produced by pass  3 Test12= 3.10D-13 3.33D-08 XBig12= 4.68D-07 1.04D-04.
      3 vectors produced by pass  4 Test12= 3.10D-13 3.33D-08 XBig12= 1.61D-09 7.65D-06.
      3 vectors produced by pass  5 Test12= 3.10D-13 3.33D-08 XBig12= 5.56D-12 4.15D-07.
 Inverted reduced A of dimension    18 with in-core refinement.
 Calculating GIAO nuclear magnetic shielding tensors.
 SCF GIAO Magnetic shielding tensor (ppm):
      1  C    Isotropic =   127.7740   Anisotropy =    46.9189
   XX=   130.8036   YX=    15.5097   ZX=    -5.9700
   XY=    25.4645   YY=   140.8185   ZY=    12.6801
   XZ=     6.0693   YZ=    12.5399   ZZ=   111.7000
   Eigenvalues:   104.1470   120.1218   159.0533
      2  C    Isotropic =   113.3661   Anisotropy =    37.7586
   XX=   113.6132   YX=    11.0380   ZX=    11.3893
   XY=     0.6224   YY=   107.7764   ZY=    19.0185
   XZ=    13.0983   YZ=    15.5600   ZZ=   118.7086
   Eigenvalues:    94.6555   106.9042   138.5385
      3  C    Isotropic =    96.3849   Anisotropy =    38.5411
   XX=    96.9201   YX=    -7.7974   ZX=   -30.4622
   XY=     6.4102   YY=    99.5039   ZY=     4.3130
   XZ=   -23.0653   YZ=     3.1077   ZZ=    92.7307
   Eigenvalues:    67.8187    99.2570   122.0789
      4  C    Isotropic =   123.5897   Anisotropy =    50.8102
   XX=   133.8518   YX=     5.2956   ZX=   -28.4600
   XY=    12.8350   YY=   100.9135   ZY=    -3.5630
   XZ=   -15.5865   YZ=     6.5188   ZZ=   136.0038
   Eigenvalues:    96.8732   116.4327   157.4631
      5  C    Isotropic =   123.2711   Anisotropy =    43.6538
   XX=   131.0240   YX=    18.3917   ZX=   -23.5444
   XY=     7.9087   YY=   108.0194   ZY=     0.9501
   XZ=   -12.0738   YZ=   -10.2935   ZZ=   130.7700
   Eigenvalues:   101.5661   115.8737   152.3737
      6  C    Isotropic =   123.6065   Anisotropy =    43.4518
   XX=   151.9340   YX=     5.5636   ZX=     6.1950
   XY=    -6.5915   YY=   110.4043   ZY=    -4.4677
   XZ=     4.1598   YZ=    -6.5118   ZZ=   108.4811
   Eigenvalues:   103.5892   114.6559   152.5743
      7  O    Isotropic =   243.0715   Anisotropy =    70.0061
   XX=   229.3789   YX=   -13.2715   ZX=   -39.0458
   XY=    19.8152   YY=   255.5505   ZY=    17.4317
   XZ=   -42.2863   YZ=    36.5479   ZZ=   244.2853
   Eigenvalues:   189.2139   250.2584   289.7423
      8  O    Isotropic =   275.6981   Anisotropy =   103.3557
   XX=   288.0978   YX=    46.7533   ZX=   -57.9772
   XY=    24.7827   YY=   290.6920   ZY=    42.7669
   XZ=   -84.0179   YZ=    17.3423   ZZ=   248.3046
   Eigenvalues:   176.2311   306.2613   344.6019
      9  O    Isotropic =   293.9540   Anisotropy =    50.8469
   XX=   317.8348   YX=   -10.9907   ZX=     5.2731
   XY=   -17.3477   YY=   292.4068   ZY=    -2.6121
   XZ=    25.0095   YZ=     0.1211   ZZ=   271.6203
   Eigenvalues:   266.7330   287.2770   327.8519
     10  O    Isotropic =   297.8875   Anisotropy =    28.7767
   XX=   288.8493   YX=    -2.8410   ZX=     1.6974
   XY=   -23.9636   YY=   306.5972   ZY=    10.9754
   XZ=   -19.0181   YZ=    -2.8811   ZZ=   298.2162
   Eigenvalues:   279.7047   296.8859   317.0720
     11  O    Isotropic =   301.8772   Anisotropy =    45.2415
   XX=   318.2760   YX=   -23.3071   ZX=   -16.8783
   XY=   -12.7123   YY=   308.3053   ZY=   -22.7221
   XZ=   -13.5974   YZ=   -12.2820   ZZ=   279.0503
   Eigenvalues:   262.3784   311.2151   332.0382
     12  H    Isotropic =    27.7785   Anisotropy =     7.9716
   XX=    25.5593   YX=    -0.0980   ZX=     0.1923
   XY=    -0.3833   YY=    27.7886   ZY=     4.1191
   XZ=    -1.3701   YZ=     3.8940   ZZ=    29.9876
   Eigenvalues:    24.6997    25.5429    33.0929
     13  H    Isotropic =    27.8447   Anisotropy =    11.0068
   XX=    27.0516   YX=    -2.9194   ZX=    -0.0005
   XY=    -3.7113   YY=    33.7145   ZY=    -0.6399
   XZ=     1.2505   YZ=    -1.2485   ZZ=    22.7680
   Eigenvalues:    22.6531    25.6985    35.1825
     14  H    Isotropic =    27.1530   Anisotropy =     6.4675
   XX=    26.5246   YX=     1.1786   ZX=     0.5083
   XY=     2.8729   YY=    30.5789   ZY=    -1.0220
   XZ=     0.8106   YZ=    -0.7628   ZZ=    24.3555
   Eigenvalues:    23.8263    26.1680    31.4647
     15  H    Isotropic =    25.9789   Anisotropy =     8.8785
   XX=    25.5279   YX=     1.4690   ZX=     2.9534
   XY=     1.5350   YY=    24.6766   ZY=     3.1875
   XZ=     3.7967   YZ=     3.3020   ZZ=    27.7322
   Eigenvalues:    22.3978    23.6410    31.8979
     16  H    Isotropic =    27.6589   Anisotropy =     6.4257
   XX=    26.5005   YX=    -1.2187   ZX=    -1.1135
   XY=    -1.1689   YY=    26.6937   ZY=    -2.6079
   XZ=    -0.1977   YZ=    -4.1231   ZZ=    29.7825
   Eigenvalues:    23.8407    27.1933    31.9427
     17  H    Isotropic =    27.6832   Anisotropy =     5.9340
   XX=    26.2247   YX=     0.7564   ZX=    -1.3788
   XY=     0.8712   YY=    29.6110   ZY=     2.4997
   XZ=    -2.2184   YZ=     3.4429   ZZ=    27.2139
   Eigenvalues:    23.7001    27.7103    31.6392
     18  H    Isotropic =    27.8653   Anisotropy =     4.9819
   XX=    29.0323   YX=    -0.0745   ZX=    -0.3036
   XY=     1.1761   YY=    23.5104   ZY=     0.2172
   XZ=     0.5181   YZ=     1.6927   ZZ=    31.0532
   Eigenvalues:    23.3413    29.0679    31.1866
     19  H    Isotropic =    27.2115   Anisotropy =    15.4801
   XX=    28.1661   YX=    -0.5628   ZX=    -6.4463
   XY=     0.5516   YY=    26.7578   ZY=     8.7369
   XZ=    -6.4964   YZ=     7.7972   ZZ=    26.7106
   Eigenvalues:    16.4812    27.6217    37.5316
     20  H    Isotropic =    29.3050   Anisotropy =    21.4727
   XX=    30.5446   YX=   -10.7749   ZX=    -3.0545
   XY=   -10.3636   YY=    34.9150   ZY=    -0.6196
   XZ=    -2.0930   YZ=     0.1150   ZZ=    22.4554
   Eigenvalues:    19.9870    24.3079    43.6201
     21  H    Isotropic =    28.5429   Anisotropy =    16.3895
   XX=    27.4582   YX=    -8.3195   ZX=    -5.5879
   XY=    -7.3970   YY=    33.2779   ZY=    -0.5420
   XZ=    -6.8984   YZ=    -0.7283   ZZ=    24.8926
   Eigenvalues:    17.5976    28.5620    39.4692
 End of Minotr Frequency-dependent properties file   721 does not exist.
 End of Minotr Frequency-dependent properties file   722 does not exist.

 **********************************************************************

            Population analysis using the SCF density.

 **********************************************************************

 Orbital symmetries:
       Occupied  (A) (A) (A) (A) (A) (A) (A) (A) (A) (A) (A) (A)
                 (A) (A) (A) (A) (A) (A) (A) (A) (A) (A) (A) (A)
                 (A) (A) (A) (A) (A) (A) (A) (A) (A) (A) (A) (A)
                 (A) (A) (A) (A) (A) (A) (A)
       Virtual   (A) (A) (A) (A) (A) (A) (A) (A) (A) (A) (A) (A)
                 (A) (A) (A) (A) (A) (A) (A) (A) (A) (A) (A) (A)
                 (A) (A) (A) (A) (A) (A) (A) (A) (A) (A) (A) (A)
                 (A) (A) (A) (A) (A) (A) (A) (A) (A) (A) (A) (A)
                 (A) (A) (A) (A) (A) (A) (A) (A) (A) (A) (A) (A)
                 (A) (A) (A) (A) (A) (A) (A) (A) (A) (A) (A) (A)
                 (A) (A) (A) (A) (A) (A) (A) (A) (A) (A) (A) (A)
                 (A) (A) (A) (A) (A) (A) (A) (A) (A) (A) (A) (A)
                 (A) (A) (A) (A) (A) (A) (A) (A) (A) (A) (A) (A)
                 (A) (A) (A) (A) (A) (A) (A) (A) (A) (A) (A) (A)
                 (A) (A) (A) (A) (A) (A) (A) (A) (A) (A) (A) (A)
                 (A) (A) (A) (A) (A) (A) (A) (A) (A) (A) (A) (A)
                 (A) (A) (A) (A) (A) (A) (A) (A) (A) (A) (A) (A)
                 (A) (A) (A) (A) (A) (A) (A) (A) (A) (A) (A) (A)
                 (A) (A) (A) (A) (A) (A) (A) (A) (A) (A) (A) (A)
                 (A) (A) (A) (A) (A) (A) (A) (A) (A) (A) (A) (A)
                 (A) (A) (A) (A) (A) (A) (A) (A) (A) (A) (A) (A)
                 (A) (A) (A) (A) (A) (A) (A) (A) (A) (A) (A) (A)
 The electronic state is 1-A.
 Alpha  occ. eigenvalues --  -19.27920 -19.27856 -19.27153 -19.25908 -19.25560
 Alpha  occ. eigenvalues --  -10.36268 -10.31678 -10.31658 -10.31415 -10.31197
 Alpha  occ. eigenvalues --  -10.30924  -1.14724  -1.08653  -1.06888  -1.05227
 Alpha  occ. eigenvalues --   -1.04193  -0.82186  -0.80400  -0.70529  -0.68678
 Alpha  occ. eigenvalues --   -0.64801  -0.60610  -0.57979  -0.56738  -0.53695
 Alpha  occ. eigenvalues --   -0.52355  -0.51091  -0.48310  -0.47482  -0.46679
 Alpha  occ. eigenvalues --   -0.44624  -0.42816  -0.41984  -0.40556  -0.38521
 Alpha  occ. eigenvalues --   -0.37694  -0.36710  -0.35947  -0.33991  -0.33301
 Alpha  occ. eigenvalues --   -0.30914  -0.28734  -0.27643
 Alpha virt. eigenvalues --    0.00528   0.01148   0.02335   0.02579   0.04310
 Alpha virt. eigenvalues --    0.04452   0.04652   0.04949   0.05833   0.08164
 Alpha virt. eigenvalues --    0.08762   0.09405   0.10013   0.10633   0.11150
 Alpha virt. eigenvalues --    0.12154   0.12394   0.13417   0.13687   0.14180
 Alpha virt. eigenvalues --    0.15113   0.15786   0.16491   0.16906   0.17793
 Alpha virt. eigenvalues --    0.18044   0.18665   0.19124   0.20006   0.21444
 Alpha virt. eigenvalues --    0.21999   0.22129   0.22634   0.23468   0.23990
 Alpha virt. eigenvalues --    0.24139   0.25039   0.26043   0.26132   0.27340
 Alpha virt. eigenvalues --    0.28383   0.29077   0.29240   0.30485   0.30938
 Alpha virt. eigenvalues --    0.31103   0.32121   0.32532   0.33216   0.33928
 Alpha virt. eigenvalues --    0.34371   0.35770   0.36282   0.36553   0.37546
 Alpha virt. eigenvalues --    0.37675   0.39109   0.39675   0.39741   0.40080
 Alpha virt. eigenvalues --    0.41224   0.41626   0.43847   0.45950   0.48957
 Alpha virt. eigenvalues --    0.49707   0.63756   0.67421   0.68015   0.70762
 Alpha virt. eigenvalues --    0.72582   0.74002   0.74765   0.76982   0.78925
 Alpha virt. eigenvalues --    0.79974   0.81506   0.82811   0.84364   0.86165
 Alpha virt. eigenvalues --    0.87676   0.91243   0.92020   0.95035   0.98320
 Alpha virt. eigenvalues --    1.00970   1.02398   1.05041   1.05771   1.06777
 Alpha virt. eigenvalues --    1.07264   1.09511   1.11390   1.11818   1.13991
 Alpha virt. eigenvalues --    1.20152   1.22136   1.24000   1.26147   1.27859
 Alpha virt. eigenvalues --    1.28818   1.30042   1.30404   1.33243   1.34123
 Alpha virt. eigenvalues --    1.34843   1.36842   1.38195   1.40000   1.41267
 Alpha virt. eigenvalues --    1.43034   1.44645   1.46631   1.50035   1.52329
 Alpha virt. eigenvalues --    1.53834   1.55711   1.56614   1.56920   1.60418
 Alpha virt. eigenvalues --    1.62020   1.62957   1.65402   1.67644   1.69034
 Alpha virt. eigenvalues --    1.70320   1.71287   1.74852   1.76175   1.78144
 Alpha virt. eigenvalues --    1.81146   1.82429   1.84199   1.85992   1.88610
 Alpha virt. eigenvalues --    1.90409   1.91508   1.94947   1.96654   1.97792
 Alpha virt. eigenvalues --    1.99493   2.00434   2.02588   2.06329   2.07936
 Alpha virt. eigenvalues --    2.09721   2.12145   2.14166   2.15000   2.17349
 Alpha virt. eigenvalues --    2.18542   2.24856   2.25445   2.28873   2.33004
 Alpha virt. eigenvalues --    2.34031   2.35644   2.39052   2.42442   2.45130
 Alpha virt. eigenvalues --    2.45221   2.46856   2.51487   2.53021   2.54414
 Alpha virt. eigenvalues --    2.57172   2.58783   2.60716   2.62449   2.63428
 Alpha virt. eigenvalues --    2.64816   2.66027   2.68817   2.70272   2.70783
 Alpha virt. eigenvalues --    2.71398   2.72882   2.76245   2.77139   2.78767
 Alpha virt. eigenvalues --    2.82908   2.85868   2.87172   2.88082   2.90118
 Alpha virt. eigenvalues --    2.93430   2.96639   2.98042   3.00445   3.03632
 Alpha virt. eigenvalues --    3.06381   3.09035   3.12495   3.14024   3.21931
 Alpha virt. eigenvalues --    3.33862   3.42676   3.45156   3.45566   3.49800
 Alpha virt. eigenvalues --    3.52320   3.52789   3.56141   3.59456   3.60237
 Alpha virt. eigenvalues --    4.27459   4.28989   4.41276   4.47445   4.52651
 Alpha virt. eigenvalues --    4.58314   4.64951   4.82106   4.91378   4.95639
 Alpha virt. eigenvalues --    5.04597
          Condensed to atoms (all electrons):
              1          2          3          4          5          6
     1  C    5.648809  -0.036794  -0.293675   0.150853   0.036275  -0.322288
     2  C   -0.036794   6.831951  -0.361452   0.067409   0.194214  -1.037718
     3  C   -0.293675  -0.361452   6.155612  -0.214191  -0.122010   0.119902
     4  C    0.150853   0.067409  -0.214191   6.883414  -0.813812  -0.441474
     5  C    0.036275   0.194214  -0.122010  -0.813812   6.859883  -0.414905
     6  C   -0.322288  -1.037718   0.119902  -0.441474  -0.414905   7.739998
     7  O   -0.025328   0.133380   0.307383   0.126915  -0.206274  -0.189638
     8  O    0.128328  -0.143166   0.237970  -0.010190  -0.234549   0.151751
     9  O    0.010792  -0.098603  -0.020562  -0.068347   0.016303   0.297858
    10  O    0.015730   0.052371   0.003770   0.143709   0.003574  -0.232795
    11  O    0.020044  -0.009608  -0.106086  -0.106610   0.296211  -0.003254
    12  H    0.464014  -0.118354   0.019141   0.005965   0.005804  -0.004153
    13  H    0.379527  -0.012743  -0.016441  -0.005272   0.005371   0.025513
    14  H    0.009027   0.322806   0.000397   0.028206   0.000819  -0.015817
    15  H    0.014518   0.014931   0.331487   0.026586  -0.025594   0.004202
    16  H   -0.001551   0.026515   0.014268   0.365441   0.001896  -0.069066
    17  H   -0.003374  -0.030457   0.008796  -0.042617   0.341024   0.064105
    18  H    0.055391  -0.116549  -0.022944  -0.070704   0.037437   0.430142
    19  H    0.006605  -0.015581  -0.003889  -0.079477   0.028025   0.031582
    20  H   -0.001045  -0.010636  -0.002642   0.051876  -0.052634   0.035584
    21  H    0.005957  -0.009823  -0.028768  -0.013400  -0.005015   0.021202
              7          8          9         10         11         12
     1  C   -0.025328   0.128328   0.010792   0.015730   0.020044   0.464014
     2  C    0.133380  -0.143166  -0.098603   0.052371  -0.009608  -0.118354
     3  C    0.307383   0.237970  -0.020562   0.003770  -0.106086   0.019141
     4  C    0.126915  -0.010190  -0.068347   0.143709  -0.106610   0.005965
     5  C   -0.206274  -0.234549   0.016303   0.003574   0.296211   0.005804
     6  C   -0.189638   0.151751   0.297858  -0.232795  -0.003254  -0.004153
     7  O    8.326590  -0.092877   0.011159   0.000740   0.012027   0.013295
     8  O   -0.092877   8.506514  -0.003104   0.000741  -0.011002  -0.060426
     9  O    0.011159  -0.003104   8.222938  -0.009178  -0.001477   0.000838
    10  O    0.000740   0.000741  -0.009178   8.403220   0.005140  -0.000063
    11  O    0.012027  -0.011002  -0.001477   0.005140   8.213197   0.001224
    12  H    0.013295  -0.060426   0.000838  -0.000063   0.001224   0.522289
    13  H   -0.006021  -0.037998  -0.000480   0.000065  -0.000672  -0.034416
    14  H   -0.036514   0.011645  -0.004108  -0.000720   0.000097   0.001659
    15  H   -0.053306  -0.028770   0.000038  -0.001010   0.002850  -0.000252
    16  H    0.001695  -0.002555   0.005724  -0.036278  -0.004573  -0.000004
    17  H   -0.001881   0.008597  -0.001120  -0.001990  -0.052923  -0.000003
    18  H    0.008229  -0.003338  -0.053316   0.008352   0.000330   0.002118
    19  H   -0.000004  -0.000271   0.250447   0.034866  -0.000007  -0.000008
    20  H    0.001427   0.000160  -0.002407   0.233798  -0.000001   0.000000
    21  H    0.000209   0.033229  -0.000142  -0.000270   0.253542  -0.000152
             13         14         15         16         17         18
     1  C    0.379527   0.009027   0.014518  -0.001551  -0.003374   0.055391
     2  C   -0.012743   0.322806   0.014931   0.026515  -0.030457  -0.116549
     3  C   -0.016441   0.000397   0.331487   0.014268   0.008796  -0.022944
     4  C   -0.005272   0.028206   0.026586   0.365441  -0.042617  -0.070704
     5  C    0.005371   0.000819  -0.025594   0.001896   0.341024   0.037437
     6  C    0.025513  -0.015817   0.004202  -0.069066   0.064105   0.430142
     7  O   -0.006021  -0.036514  -0.053306   0.001695  -0.001881   0.008229
     8  O   -0.037998   0.011645  -0.028770  -0.002555   0.008597  -0.003338
     9  O   -0.000480  -0.004108   0.000038   0.005724  -0.001120  -0.053316
    10  O    0.000065  -0.000720  -0.001010  -0.036278  -0.001990   0.008352
    11  O   -0.000672   0.000097   0.002850  -0.004573  -0.052923   0.000330
    12  H   -0.034416   0.001659  -0.000252  -0.000004  -0.000003   0.002118
    13  H    0.523225  -0.002805   0.000477   0.000002   0.000006   0.000113
    14  H   -0.002805   0.487547   0.000040  -0.000110   0.000009   0.001806
    15  H    0.000477   0.000040   0.528309  -0.000125  -0.004473   0.000037
    16  H    0.000002  -0.000110  -0.000125   0.523764  -0.002464  -0.005401
    17  H    0.000006   0.000009  -0.004473  -0.002464   0.531185  -0.000147
    18  H    0.000113   0.001806   0.000037  -0.005401  -0.000147   0.539168
    19  H    0.000005  -0.000114   0.000000   0.000082  -0.000031   0.006305
    20  H    0.000000   0.000014   0.000018  -0.010321   0.001340  -0.000142
    21  H    0.000085  -0.000014   0.000187  -0.000094   0.005508  -0.000052
             19         20         21
     1  C    0.006605  -0.001045   0.005957
     2  C   -0.015581  -0.010636  -0.009823
     3  C   -0.003889  -0.002642  -0.028768
     4  C   -0.079477   0.051876  -0.013400
     5  C    0.028025  -0.052634  -0.005015
     6  C    0.031582   0.035584   0.021202
     7  O   -0.000004   0.001427   0.000209
     8  O   -0.000271   0.000160   0.033229
     9  O    0.250447  -0.002407  -0.000142
    10  O    0.034866   0.233798  -0.000270
    11  O   -0.000007  -0.000001   0.253542
    12  H   -0.000008   0.000000  -0.000152
    13  H    0.000005   0.000000   0.000085
    14  H   -0.000114   0.000014  -0.000014
    15  H    0.000000   0.000018   0.000187
    16  H    0.000082  -0.010321  -0.000094
    17  H   -0.000031   0.001340   0.005508
    18  H    0.006305  -0.000142  -0.000052
    19  H    0.353604  -0.002149   0.000003
    20  H   -0.002149   0.345981  -0.000003
    21  H    0.000003  -0.000003   0.342348
 Mulliken atomic charges:
              1
     1  C   -0.261816
     2  C    0.357907
     3  C   -0.006065
     4  C    0.015720
     5  C    0.047954
     6  C   -0.190731
     7  O   -0.331206
     8  O   -0.450691
     9  O   -0.553254
    10  O   -0.623772
    11  O   -0.508449
    12  H    0.181482
    13  H    0.182459
    14  H    0.196132
    15  H    0.189849
    16  H    0.193154
    17  H    0.180910
    18  H    0.183165
    19  H    0.390006
    20  H    0.411781
    21  H    0.395465
 Sum of Mulliken atomic charges =   0.00000
 Mulliken charges with hydrogens summed into heavy atoms:
              1
     1  C    0.102125
     2  C    0.554039
     3  C    0.183785
     4  C    0.208874
     5  C    0.228864
     6  C   -0.007566
     7  O   -0.331206
     8  O   -0.450691
     9  O   -0.163248
    10  O   -0.211991
    11  O   -0.112984
 Sum of Mulliken charges with hydrogens summed into heavy atoms =   0.00000
 Electronic spatial extent (au):  <R**2>=           1422.5117
 Charge=              0.0000 electrons
 Dipole moment (field-independent basis, Debye):
    X=             -0.2406    Y=              0.2392    Z=             -0.4552  Tot=              0.5677
 Quadrupole moment (field-independent basis, Debye-Ang):
   XX=            -66.6763   YY=            -62.1381   ZZ=            -67.3374
   XY=            -11.4148   XZ=             -1.5138   YZ=              4.8296
 Traceless Quadrupole moment (field-independent basis, Debye-Ang):
   XX=             -1.2924   YY=              3.2459   ZZ=             -1.9535
   XY=            -11.4148   XZ=             -1.5138   YZ=              4.8296
 Octapole moment (field-independent basis, Debye-Ang**2):
  XXX=            -17.0375  YYY=             -9.0131  ZZZ=             -8.2215  XYY=             -9.5462
  XXY=             21.2483  XXZ=             13.0482  XZZ=              8.8249  YZZ=              1.2717
  YYZ=             14.2350  XYZ=             10.6321
 Hexadecapole moment (field-independent basis, Debye-Ang**3):
 XXXX=           -814.8980 YYYY=           -625.6126 ZZZZ=           -296.2182 XXXY=            -56.2489
 XXXZ=            -39.5455 YYYX=            -72.2820 YYYZ=             24.8632 ZZZX=             -5.6164
 ZZZY=             11.2482 XXYY=           -227.7221 XXZZ=           -183.6736 YYZZ=           -160.4961
 XXYZ=             -5.5076 YYXZ=             -7.5038 ZZXY=             -2.6579
 N-N= 7.280659972616D+02 E-N=-2.885975954797D+03  KE= 6.052014690568D+02
 1\1\GINC-COMPUTE-8-6\SP\RmPW1PW91\6-31+G(d,p)\C6H10O5\MMARCARINO.IQUIR
 \12-Apr-2019\0\\# mpw1pw91/6-31+g** nmr scrf=(pcm,solvent=water)\\comm
 ent\\0,1\C,0,1.381351,-1.598849,-0.444707\C,0,0.000608,-1.415884,0.191
 992\C,0,1.221586,0.318964,0.838562\C,0,-0.995919,0.886807,-0.282076\C,
 0,0.397363,1.427299,0.122656\C,0,-0.987576,-0.608915,-0.695918\O,0,0.3
 65205,-0.661069,1.371433\O,0,2.03829,-0.349484,-0.142431\O,0,-2.304773
 ,-1.129601,-0.636033\O,0,-1.905886,0.986555,0.827549\O,0,1.113558,1.94
 404,-0.987509\H,0,1.359772,-1.741521,-1.527794\H,0,1.933367,-2.420468,
 0.023612\H,0,-0.462126,-2.348216,0.517796\H,0,1.864554,0.70765,1.63068
 3\H,0,-1.3621,1.48696,-1.121436\H,0,0.22448,2.252676,0.821724\H,0,-0.6
 67664,-0.686088,-1.740828\H,0,-2.71599,-0.64469,0.107047\H,0,-2.419003
 ,1.802201,0.722968\H,0,1.689073,1.21144,-1.280906\\Version=EM64L-G09Re
 vC.01\State=1-A\HF=-610.6445478\RMSD=5.431e-09\Dipole=-0.0946452,0.094
 1091,-0.179078\Quadrupole=-0.9608697,2.413228,-1.4523582,-8.4866499,-1
 .1254437,3.5907102\PG=C01 [X(C6H10O5)]\\@


 ADVERTISING--  HE WHO HAS SOMETHING TO SELL AND GOES AND WHISPERS
                IN A WELL, IS NOT SO APT TO GET THE DOLLARS AS HE
                WHO CLIMBS A TREE AND HOLLERS.

                   -- FROM THE BACK OF A SUGAR PACKET
 Job cpu time:  0 days  0 hours 22 minutes 23.4 seconds.
 File lengths (MBytes):  RWF=     84 Int=      0 D2E=      0 Chk=      5 Scr=      1
 Normal termination of Gaussian 09 at Fri Apr 12 12:43:06 2019.
