 Entering Gaussian System, Link 0=g09
 Input=/home/asarotti.iquir/SCF3/08_SRR_Levo10_OPTB_energy_b3lyp_smd.gjc
 Output=/home/asarotti.iquir/SCF3/08_SRR_Levo10_OPTB_energy_b3lyp_smd.log
 Initial command:
 /share/apps/Gaussian09/EM64T.SSE4.2-enabled/g09/l1.exe /tmp/Gau-48946.inp -scrdir=/tmp/
 Entering Link 1 = /share/apps/Gaussian09/EM64T.SSE4.2-enabled/g09/l1.exe PID=     48947.
  
 Copyright (c) 1988,1990,1992,1993,1995,1998,2003,2009,2011,
            Gaussian, Inc.  All Rights Reserved.
  
 This is part of the Gaussian(R) 09 program.  It is based on
 the Gaussian(R) 03 system (copyright 2003, Gaussian, Inc.),
 the Gaussian(R) 98 system (copyright 1998, Gaussian, Inc.),
 the Gaussian(R) 94 system (copyright 1995, Gaussian, Inc.),
 the Gaussian 92(TM) system (copyright 1992, Gaussian, Inc.),
 the Gaussian 90(TM) system (copyright 1990, Gaussian, Inc.),
 the Gaussian 88(TM) system (copyright 1988, Gaussian, Inc.),
 the Gaussian 86(TM) system (copyright 1986, Carnegie Mellon
 University), and the Gaussian 82(TM) system (copyright 1983,
 Carnegie Mellon University). Gaussian is a federally registered
 trademark of Gaussian, Inc.
  
 This software contains proprietary and confidential information,
 including trade secrets, belonging to Gaussian, Inc.
  
 This software is provided under written license and may be
 used, copied, transmitted, or stored only in accord with that
 written license.
  
 The following legend is applicable only to US Government
 contracts under FAR:
  
                    RESTRICTED RIGHTS LEGEND
  
 Use, reproduction and disclosure by the US Government is
 subject to restrictions as set forth in subparagraphs (a)
 and (c) of the Commercial Computer Software - Restricted
 Rights clause in FAR 52.227-19.
  
 Gaussian, Inc.
 340 Quinnipiac St., Bldg. 40, Wallingford CT 06492
  
  
 ---------------------------------------------------------------
 Warning -- This program may not be used in any manner that
 competes with the business of Gaussian, Inc. or will provide
 assistance to any competitor of Gaussian, Inc.  The licensee
 of this program is prohibited from giving any competitor of
 Gaussian, Inc. access to this program.  By using this program,
 the user acknowledges that Gaussian, Inc. is engaged in the
 business of creating and licensing software in the field of
 computational chemistry and represents and warrants to the
 licensee that it is not a competitor of Gaussian, Inc. and that
 it will not use this program in any manner prohibited above.
 ---------------------------------------------------------------
  

 Cite this work as:
 Gaussian 09, Revision C.01,
 M. J. Frisch, G. W. Trucks, H. B. Schlegel, G. E. Scuseria, 
 M. A. Robb, J. R. Cheeseman, G. Scalmani, V. Barone, B. Mennucci, 
 G. A. Petersson, H. Nakatsuji, M. Caricato, X. Li, H. P. Hratchian, 
 A. F. Izmaylov, J. Bloino, G. Zheng, J. L. Sonnenberg, M. Hada, 
 M. Ehara, K. Toyota, R. Fukuda, J. Hasegawa, M. Ishida, T. Nakajima, 
 Y. Honda, O. Kitao, H. Nakai, T. Vreven, J. A. Montgomery, Jr., 
 J. E. Peralta, F. Ogliaro, M. Bearpark, J. J. Heyd, E. Brothers, 
 K. N. Kudin, V. N. Staroverov, T. Keith, R. Kobayashi, J. Normand, 
 K. Raghavachari, A. Rendell, J. C. Burant, S. S. Iyengar, J. Tomasi, 
 M. Cossi, N. Rega, J. M. Millam, M. Klene, J. E. Knox, J. B. Cross, 
 V. Bakken, C. Adamo, J. Jaramillo, R. Gomperts, R. E. Stratmann, 
 O. Yazyev, A. J. Austin, R. Cammi, C. Pomelli, J. W. Ochterski, 
 R. L. Martin, K. Morokuma, V. G. Zakrzewski, G. A. Voth, 
 P. Salvador, J. J. Dannenberg, S. Dapprich, A. D. Daniels, 
 O. Farkas, J. B. Foresman, J. V. Ortiz, J. Cioslowski, 
 and D. J. Fox, Gaussian, Inc., Wallingford CT, 2010.
 
 ******************************************
 Gaussian 09:  EM64L-G09RevC.01 23-Sep-2011
                15-Apr-2019 
 ******************************************
 %nprocshared=4
 Will use up to    4 processors via shared memory.
 -----------------------------------------------------------
 # B3LYP/6-31+G** test scrf=(pcm,solvent=water,smd,dovacuum)
 -----------------------------------------------------------
 1/38=1/1;
 2/12=2,17=6,18=5,40=1/2;
 3/5=1,6=6,7=111,11=2,16=1,25=1,30=1,70=32101,72=1,74=-5/1,2,3;
 4//1;
 5/5=2,38=5,53=1/2;
 6/7=2,8=2,9=2,10=2,28=1/1;
 99/5=1,9=1/99;
 -------
 comment
 -------
 Charge =  0 Multiplicity = 1
 Symbolic Z-Matrix:
 6                     1.84852  -0.46969  -1.02604 
 6                     0.98515  -1.29203  -0.06178 
 6                     1.02087   0.79288   0.71528 
 6                    -1.0429    0.15317  -0.58519 
 6                    -0.46931   1.11003   0.47773 
 6                    -0.50769  -1.28938  -0.4006 
 8                     1.13958  -0.55005   1.16941 
 8                     1.76413   0.86672  -0.49738 
 8                    -1.24391  -1.93875   0.64289 
 8                    -2.46157   0.13572  -0.5871 
 8                    -0.6598    2.43909   0.0104 
 1                     1.48227  -0.48697  -2.05762 
 1                     2.89207  -0.80069  -1.00909 
 1                     1.35031  -2.30621   0.10838 
 1                     1.4751    1.45871   1.45499 
 1                    -0.73079   0.53504  -1.563 
 1                    -0.99913   0.95174   1.42867 
 1                    -0.70331  -1.86688  -1.30933 
 1                    -0.84824  -1.64302   1.48319 
 1                    -2.69868  -0.53566   0.08097 
 1                    -0.53495   3.04236   0.7606 
 
                          Input orientation:                          
 ---------------------------------------------------------------------
 Center     Atomic      Atomic             Coordinates (Angstroms)
 Number     Number       Type             X           Y           Z
 ---------------------------------------------------------------------
      1          6           0        1.848517   -0.469694   -1.026040
      2          6           0        0.985151   -1.292032   -0.061779
      3          6           0        1.020872    0.792879    0.715277
      4          6           0       -1.042898    0.153167   -0.585185
      5          6           0       -0.469310    1.110027    0.477727
      6          6           0       -0.507685   -1.289380   -0.400598
      7          8           0        1.139582   -0.550046    1.169413
      8          8           0        1.764131    0.866716   -0.497377
      9          8           0       -1.243910   -1.938749    0.642892
     10          8           0       -2.461574    0.135717   -0.587098
     11          8           0       -0.659795    2.439087    0.010399
     12          1           0        1.482267   -0.486968   -2.057622
     13          1           0        2.892066   -0.800694   -1.009093
     14          1           0        1.350311   -2.306214    0.108382
     15          1           0        1.475099    1.458708    1.454991
     16          1           0       -0.730788    0.535040   -1.563000
     17          1           0       -0.999131    0.951736    1.428669
     18          1           0       -0.703309   -1.866880   -1.309325
     19          1           0       -0.848236   -1.643022    1.483192
     20          1           0       -2.698684   -0.535656    0.080967
     21          1           0       -0.534951    3.042357    0.760602
 ---------------------------------------------------------------------
                    Distance matrix (angstroms):
                    1          2          3          4          5
     1  C    0.000000
     2  C    1.533441   0.000000
     3  C    2.304620   2.225297   0.000000
     4  C    2.990416   2.544708   2.521821   0.000000
     5  C    3.182633   2.859442   1.541965   1.540898   0.000000
     6  C    2.571916   1.530805   2.813799   1.549667   2.555402
     7  O    2.308476   1.445761   1.422596   2.887272   2.413049
     8  O    1.439652   2.335968   1.424225   2.897633   2.449140
     9  O    3.808748   2.425596   3.549122   2.434069   3.149971
    10  O    4.374480   3.767538   3.775642   1.418785   2.460132
    11  O    3.978296   4.078272   2.455910   2.393098   1.421647
    12  H    1.094805   2.208765   3.088667   2.992374   3.575897
    13  H    1.094917   2.185210   3.002381   4.071055   4.142504
    14  H    2.215384   1.091266   3.175095   3.501005   3.888205
    15  H    3.164442   3.179184   1.093996   3.493861   2.203940
    16  H    2.819686   2.921695   2.885366   1.095154   2.136246
    17  H    4.019348   3.345640   2.148156   2.166849   1.100026
    18  H    2.923046   2.176630   3.761134   2.172623   3.479984
    19  H    3.865931   2.423105   3.164944   2.746338   2.955304
    20  H    4.680476   3.763392   4.000306   1.913077   2.799250
    21  H    4.605161   4.666256   2.735469   3.227471   1.954028
                    6          7          8          9         10
     6  C    0.000000
     7  O    2.392705   0.000000
     8  O    3.133570   2.274965   0.000000
     9  O    1.432682   2.808337   4.268391   0.000000
    10  O    2.425565   4.064963   4.289405   2.701664   0.000000
    11  O    3.754134   3.676410   2.933531   4.461691   2.984782
    12  H    2.710997   3.245792   2.084771   4.102741   4.254887
    13  H    3.488178   2.807118   2.077101   4.596795   5.451276
    14  H    2.178339   2.062600   3.256636   2.674082   4.580086
    15  H    3.863500   2.056507   2.060518   4.426650   4.627940
    16  H    2.174733   3.484505   2.733163   3.353936   2.026688
    17  H    2.934338   2.626149   3.369347   3.005373   2.620676
    18  H    1.094331   3.357743   3.770950   2.026960   2.761069
    19  H    1.946716   2.290082   4.128668   0.974739   3.170627
    20  H    2.366534   3.989638   4.713581   2.097808   0.976357
    21  H    4.484760   3.984538   3.406127   5.032683   3.738546
                   11         12         13         14         15
    11  O    0.000000
    12  H    4.174558   0.000000
    13  H    4.914393   1.784761   0.000000
    14  H    5.154416   2.831721   2.427416   0.000000
    15  H    2.757854   4.015490   3.631033   4.000446   0.000000
    16  H    2.471036   2.487321   3.900778   3.898361   3.850632
    17  H    2.082991   4.514580   4.914785   4.228153   2.525773
    18  H    4.503878   2.690882   3.762129   2.533824   4.842152
    19  H    4.343759   4.393753   4.572839   2.676478   3.875488
    20  H    3.607096   4.696412   5.702189   4.419275   4.825546
    21  H    0.970734   4.946483   5.444750   5.708486   2.651494
                   16         17         18         19         20
    16  H    0.000000
    17  H    3.032446   0.000000
    18  H    2.415435   3.940649   0.000000
    19  H    3.746603   2.599714   2.805221   0.000000
    20  H    2.778782   2.630041   2.772470   2.572285   0.000000
    21  H    3.424050   2.243317   5.330436   4.751111   4.236251
                   21
    21  H    0.000000
 Stoichiometry    C6H10O5
 Framework group  C1[X(C6H10O5)]
 Deg. of freedom    57
 Full point group                 C1      NOp   1
 Largest Abelian subgroup         C1      NOp   1
 Largest concise Abelian subgroup C1      NOp   1
                         Standard orientation:                         
 ---------------------------------------------------------------------
 Center     Atomic      Atomic             Coordinates (Angstroms)
 Number     Number       Type             X           Y           Z
 ---------------------------------------------------------------------
      1          6           0        1.848518   -0.469692   -1.026040
      2          6           0        0.985152   -1.292031   -0.061779
      3          6           0        1.020871    0.792880    0.715277
      4          6           0       -1.042898    0.153166   -0.585185
      5          6           0       -0.469311    1.110026    0.477727
      6          6           0       -0.507684   -1.289381   -0.400598
      7          8           0        1.139583   -0.550045    1.169413
      8          8           0        1.764130    0.866718   -0.497377
      9          8           0       -1.243908   -1.938750    0.642892
     10          8           0       -2.461574    0.135714   -0.587098
     11          8           0       -0.659798    2.439086    0.010399
     12          1           0        1.482268   -0.486966   -2.057622
     13          1           0        2.892067   -0.800691   -1.009093
     14          1           0        1.350314   -2.306213    0.108382
     15          1           0        1.475097    1.458709    1.454991
     16          1           0       -0.730789    0.535039   -1.563000
     17          1           0       -0.999132    0.951735    1.428669
     18          1           0       -0.703307   -1.866881   -1.309325
     19          1           0       -0.848234   -1.643023    1.483192
     20          1           0       -2.698683   -0.535659    0.080967
     21          1           0       -0.534954    3.042356    0.760602
 ---------------------------------------------------------------------
 Rotational constants (GHZ):      1.4654227      1.2953269      0.8841122
 Standard basis: 6-31+G(d,p) (6D, 7F)
 There are   259 symmetry adapted basis functions of A   symmetry.
 Integral buffers will be    131072 words long.
 Raffenetti 2 integral format.
 Two-electron integral symmetry is turned on.
   259 basis functions,   422 primitive gaussians,   259 cartesian basis functions
    43 alpha electrons       43 beta electrons
       nuclear repulsion energy       727.1801035826 Hartrees.
 NAtoms=   21 NActive=   21 NUniq=   21 SFac= 1.00D+00 NAtFMM=   60 NAOKFM=F Big=F
 ------------------------------------------------------------------------------
 Polarizable Continuum Model (PCM)
 =================================
 Model                : C-PCM.
 Atomic radii         : SMD-Coulomb.
 Polarization charges : Total charges.
 Charge compensation  : None.
 Solution method      : Matrix inversion.
 Cavity type          : VdW (van der Waals Surface) (Alpha=1.000).
 Cavity algorithm     : GePol (No added spheres)
                        Default sphere list used, NSphG=   21.
                        Lebedev-Laikov grids with approx.  5.0 points / Ang**2.
                        Smoothing algorithm: Karplus/York (Gamma=1.0000).
                        Polarization charges: spherical gaussians, with
                                              point-specific exponents (IZeta= 3).
                        Self-potential: point-specific (ISelfS= 7).
                        Self-field    : sphere-specific E.n sum rule (ISelfD= 2).
 Solvent              : Water, Eps=  78.355300 Eps(inf)=   1.777849
 ------------------------------------------------------------------------------
 ------------------------------------------------------------------------------
 Atomic radii for non-electrostatic terms: SMD-CDS.
 ------------------------------------------------------------------------------
 Nuclear repulsion after PCM non-electrostatic terms =      727.1849406627 Hartrees.
 One-electron integrals computed using PRISM.
 NBasis=   259 RedAO= T  NBF=   259
 NBsUse=   259 1.00D-06 NBFU=   259
 Harris functional with IExCor=  402 diagonalized for initial guess.
 ExpMin= 4.38D-02 ExpMax= 5.48D+03 ExpMxC= 8.25D+02 IAcc=2 IRadAn=         4 AccDes= 0.00D+00
 HarFok:  IExCor=  402 AccDes= 0.00D+00 IRadAn=         4 IDoV= 1
 ScaDFX=  1.000000  1.000000  1.000000  1.000000
 FoFCou: FMM=F IPFlag=           0 FMFlag=      100000 FMFlg1=           0
         NFxFlg=           0 DoJE=T BraDBF=F KetDBF=T FulRan=T
         Omega=  0.000000  0.000000  1.000000  0.000000  0.000000 ICntrl=     500 IOpCl=  0
         NMat0=    1 NMatS0=    1 NMatT0=    0 NMatD0=    1 NMtDS0=    0 NMtDT0=    0
         I1Cent=           4 NGrid=           0.
 Petite list used in FoFCou.
 Initial guess orbital symmetries:
       Occupied  (A) (A) (A) (A) (A) (A) (A) (A) (A) (A) (A) (A)
                 (A) (A) (A) (A) (A) (A) (A) (A) (A) (A) (A) (A)
                 (A) (A) (A) (A) (A) (A) (A) (A) (A) (A) (A) (A)
                 (A) (A) (A) (A) (A) (A) (A)
       Virtual   (A) (A) (A) (A) (A) (A) (A) (A) (A) (A) (A) (A)
                 (A) (A) (A) (A) (A) (A) (A) (A) (A) (A) (A) (A)
                 (A) (A) (A) (A) (A) (A) (A) (A) (A) (A) (A) (A)
                 (A) (A) (A) (A) (A) (A) (A) (A) (A) (A) (A) (A)
                 (A) (A) (A) (A) (A) (A) (A) (A) (A) (A) (A) (A)
                 (A) (A) (A) (A) (A) (A) (A) (A) (A) (A) (A) (A)
                 (A) (A) (A) (A) (A) (A) (A) (A) (A) (A) (A) (A)
                 (A) (A) (A) (A) (A) (A) (A) (A) (A) (A) (A) (A)
                 (A) (A) (A) (A) (A) (A) (A) (A) (A) (A) (A) (A)
                 (A) (A) (A) (A) (A) (A) (A) (A) (A) (A) (A) (A)
                 (A) (A) (A) (A) (A) (A) (A) (A) (A) (A) (A) (A)
                 (A) (A) (A) (A) (A) (A) (A) (A) (A) (A) (A) (A)
                 (A) (A) (A) (A) (A) (A) (A) (A) (A) (A) (A) (A)
                 (A) (A) (A) (A) (A) (A) (A) (A) (A) (A) (A) (A)
                 (A) (A) (A) (A) (A) (A) (A) (A) (A) (A) (A) (A)
                 (A) (A) (A) (A) (A) (A) (A) (A) (A) (A) (A) (A)
                 (A) (A) (A) (A) (A) (A) (A) (A) (A) (A) (A) (A)
                 (A) (A) (A) (A) (A) (A) (A) (A) (A) (A) (A) (A)
 The electronic state of the initial guess is 1-A.
 Requested convergence on RMS density matrix=1.00D-08 within 128 cycles.
 Requested convergence on MAX density matrix=1.00D-06.
 Requested convergence on             energy=1.00D-06.
 No special actions if energy rises.
 Error on total polarization charges =  0.05819
 SCF Done:  E(RB3LYP) =  -610.812067127     A.U. after   12 cycles
             Convg  =    0.4905D-08             -V/T =  2.0090
 SMD-CDS (non-electrostatic) energy       (kcal/mol) =       3.04
 (included in total energy above)

 **********************************************************************

            Population analysis using the SCF density.

 **********************************************************************

 Orbital symmetries:
       Occupied  (A) (A) (A) (A) (A) (A) (A) (A) (A) (A) (A) (A)
                 (A) (A) (A) (A) (A) (A) (A) (A) (A) (A) (A) (A)
                 (A) (A) (A) (A) (A) (A) (A) (A) (A) (A) (A) (A)
                 (A) (A) (A) (A) (A) (A) (A)
       Virtual   (A) (A) (A) (A) (A) (A) (A) (A) (A) (A) (A) (A)
                 (A) (A) (A) (A) (A) (A) (A) (A) (A) (A) (A) (A)
                 (A) (A) (A) (A) (A) (A) (A) (A) (A) (A) (A) (A)
                 (A) (A) (A) (A) (A) (A) (A) (A) (A) (A) (A) (A)
                 (A) (A) (A) (A) (A) (A) (A) (A) (A) (A) (A) (A)
                 (A) (A) (A) (A) (A) (A) (A) (A) (A) (A) (A) (A)
                 (A) (A) (A) (A) (A) (A) (A) (A) (A) (A) (A) (A)
                 (A) (A) (A) (A) (A) (A) (A) (A) (A) (A) (A) (A)
                 (A) (A) (A) (A) (A) (A) (A) (A) (A) (A) (A) (A)
                 (A) (A) (A) (A) (A) (A) (A) (A) (A) (A) (A) (A)
                 (A) (A) (A) (A) (A) (A) (A) (A) (A) (A) (A) (A)
                 (A) (A) (A) (A) (A) (A) (A) (A) (A) (A) (A) (A)
                 (A) (A) (A) (A) (A) (A) (A) (A) (A) (A) (A) (A)
                 (A) (A) (A) (A) (A) (A) (A) (A) (A) (A) (A) (A)
                 (A) (A) (A) (A) (A) (A) (A) (A) (A) (A) (A) (A)
                 (A) (A) (A) (A) (A) (A) (A) (A) (A) (A) (A) (A)
                 (A) (A) (A) (A) (A) (A) (A) (A) (A) (A) (A) (A)
                 (A) (A) (A) (A) (A) (A) (A) (A) (A) (A) (A) (A)
 The electronic state is 1-A.
 Alpha  occ. eigenvalues --  -19.18747 -19.17655 -19.17473 -19.17106 -19.16632
 Alpha  occ. eigenvalues --  -10.29413 -10.25363 -10.24966 -10.24497 -10.24403
 Alpha  occ. eigenvalues --  -10.24239  -1.11303  -1.05440  -1.04017  -1.02293
 Alpha  occ. eigenvalues --   -1.01139  -0.79597  -0.77948  -0.68105  -0.65482
 Alpha  occ. eigenvalues --   -0.63029  -0.58765  -0.55705  -0.53375  -0.52053
 Alpha  occ. eigenvalues --   -0.50140  -0.48989  -0.46924  -0.45484  -0.44739
 Alpha  occ. eigenvalues --   -0.42990  -0.41891  -0.39855  -0.38728  -0.37695
 Alpha  occ. eigenvalues --   -0.36855  -0.35000  -0.34251  -0.32317  -0.30936
 Alpha  occ. eigenvalues --   -0.29120  -0.28122  -0.26315
 Alpha virt. eigenvalues --    0.00874   0.01679   0.01843   0.02545   0.03928
 Alpha virt. eigenvalues --    0.04998   0.05547   0.05776   0.06151   0.07795
 Alpha virt. eigenvalues --    0.08388   0.09781   0.10404   0.10611   0.11351
 Alpha virt. eigenvalues --    0.12526   0.12858   0.13644   0.13875   0.14490
 Alpha virt. eigenvalues --    0.15367   0.15844   0.16360   0.16616   0.17224
 Alpha virt. eigenvalues --    0.17678   0.19091   0.19456   0.20137   0.21044
 Alpha virt. eigenvalues --    0.21716   0.21763   0.22407   0.23241   0.23263
 Alpha virt. eigenvalues --    0.24002   0.24568   0.25549   0.26080   0.26559
 Alpha virt. eigenvalues --    0.27711   0.27779   0.28466   0.29046   0.30088
 Alpha virt. eigenvalues --    0.30632   0.31622   0.32262   0.32914   0.33420
 Alpha virt. eigenvalues --    0.33635   0.34465   0.35052   0.35347   0.36203
 Alpha virt. eigenvalues --    0.36667   0.37859   0.38052   0.38319   0.39380
 Alpha virt. eigenvalues --    0.40910   0.41919   0.43356   0.45214   0.46162
 Alpha virt. eigenvalues --    0.47742   0.64299   0.65623   0.66361   0.66884
 Alpha virt. eigenvalues --    0.69934   0.70801   0.74869   0.75958   0.76941
 Alpha virt. eigenvalues --    0.79760   0.80017   0.82454   0.84752   0.85582
 Alpha virt. eigenvalues --    0.87386   0.88912   0.94191   0.95333   0.97419
 Alpha virt. eigenvalues --    1.01704   1.03241   1.03390   1.04920   1.06963
 Alpha virt. eigenvalues --    1.08525   1.08646   1.11100   1.12298   1.12927
 Alpha virt. eigenvalues --    1.18195   1.18977   1.22116   1.24264   1.25774
 Alpha virt. eigenvalues --    1.26762   1.28584   1.29780   1.30944   1.33385
 Alpha virt. eigenvalues --    1.33716   1.35289   1.36116   1.38176   1.39782
 Alpha virt. eigenvalues --    1.40361   1.42850   1.44325   1.46094   1.50893
 Alpha virt. eigenvalues --    1.52861   1.55019   1.56947   1.58710   1.60096
 Alpha virt. eigenvalues --    1.61416   1.62916   1.64904   1.66117   1.67355
 Alpha virt. eigenvalues --    1.70717   1.71994   1.73648   1.74300   1.77701
 Alpha virt. eigenvalues --    1.80554   1.81997   1.83717   1.84759   1.87775
 Alpha virt. eigenvalues --    1.89494   1.91445   1.93052   1.96209   1.97690
 Alpha virt. eigenvalues --    2.00320   2.02557   2.05817   2.06573   2.08017
 Alpha virt. eigenvalues --    2.11421   2.11646   2.13729   2.15950   2.17301
 Alpha virt. eigenvalues --    2.18349   2.20069   2.20769   2.23899   2.27803
 Alpha virt. eigenvalues --    2.30227   2.34797   2.37265   2.39372   2.41697
 Alpha virt. eigenvalues --    2.45412   2.46488   2.48297   2.50089   2.51794
 Alpha virt. eigenvalues --    2.54294   2.57402   2.58983   2.60041   2.63600
 Alpha virt. eigenvalues --    2.64872   2.66959   2.67322   2.68478   2.71460
 Alpha virt. eigenvalues --    2.72063   2.74812   2.75090   2.76717   2.80302
 Alpha virt. eigenvalues --    2.82916   2.84781   2.86718   2.88525   2.89486
 Alpha virt. eigenvalues --    2.93123   2.95159   2.96937   2.98050   3.01551
 Alpha virt. eigenvalues --    3.04411   3.08552   3.10637   3.12118   3.21478
 Alpha virt. eigenvalues --    3.33809   3.39580   3.41747   3.45253   3.48774
 Alpha virt. eigenvalues --    3.50070   3.51882   3.53017   3.57144   3.59224
 Alpha virt. eigenvalues --    4.27203   4.33303   4.40175   4.40350   4.47984
 Alpha virt. eigenvalues --    4.58121   4.60917   4.71789   4.82075   4.88396
 Alpha virt. eigenvalues --    4.95048
          Condensed to atoms (all electrons):
              1          2          3          4          5          6
     1  C    5.476905  -0.134435  -0.312242  -0.122005   0.129109   0.058918
     2  C   -0.134435   6.616103  -0.436181   0.147011   0.161774  -0.541983
     3  C   -0.312242  -0.436181   6.510862   0.329177  -1.008748   0.140174
     4  C   -0.122005   0.147011   0.329177   6.510934  -0.744054  -0.330223
     5  C    0.129109   0.161774  -1.008748  -0.744054   6.979690   0.007587
     6  C    0.058918  -0.541983   0.140174  -0.330223   0.007587   6.112280
     7  O   -0.037313   0.086621   0.243400  -0.058698  -0.050116  -0.065030
     8  O    0.157413  -0.129307   0.337698   0.030746  -0.215891  -0.010586
     9  O    0.006155  -0.107950  -0.034967  -0.153689   0.065361   0.294870
    10  O    0.001754   0.004821   0.029045   0.252092  -0.152649  -0.044642
    11  O    0.024370  -0.033185  -0.106697  -0.202763   0.275614   0.073936
    12  H    0.459309  -0.159040   0.010174  -0.042796   0.020079   0.069542
    13  H    0.412020  -0.008489  -0.017214   0.007004   0.000523  -0.013610
    14  H   -0.010081   0.326633   0.030211   0.010203  -0.014508  -0.002735
    15  H    0.015379   0.021394   0.377820   0.011671  -0.030994  -0.015527
    16  H   -0.000546  -0.016414   0.000402   0.459949  -0.066166  -0.055210
    17  H    0.006592  -0.023386  -0.058995  -0.089948   0.437974   0.018951
    18  H    0.019280  -0.063818  -0.019342  -0.062129   0.044800   0.410607
    19  H    0.005224  -0.026592  -0.000621  -0.014840   0.011657   0.008754
    20  H   -0.000851   0.011410   0.000614   0.037249  -0.030083  -0.047676
    21  H   -0.002428   0.006224  -0.041124   0.028039   0.026067  -0.010727
              7          8          9         10         11         12
     1  C   -0.037313   0.157413   0.006155   0.001754   0.024370   0.459309
     2  C    0.086621  -0.129307  -0.107950   0.004821  -0.033185  -0.159040
     3  C    0.243400   0.337698  -0.034967   0.029045  -0.106697   0.010174
     4  C   -0.058698   0.030746  -0.153689   0.252092  -0.202763  -0.042796
     5  C   -0.050116  -0.215891   0.065361  -0.152649   0.275614   0.020079
     6  C   -0.065030  -0.010586   0.294870  -0.044642   0.073936   0.069542
     7  O    8.387485  -0.046096  -0.004478  -0.001662   0.006762   0.010695
     8  O   -0.046096   8.436033   0.000405  -0.000999   0.011747  -0.043716
     9  O   -0.004478   0.000405   8.343240  -0.027161  -0.003216   0.000268
    10  O   -0.001662  -0.000999  -0.027161   8.359663   0.010054  -0.000119
    11  O    0.006762   0.011747  -0.003216   0.010054   8.367358   0.000061
    12  H    0.010695  -0.043716   0.000268  -0.000119   0.000061   0.533718
    13  H   -0.001893  -0.051435  -0.000180   0.000009   0.000060  -0.039346
    14  H   -0.037120   0.007087   0.002177  -0.000571   0.000085   0.002202
    15  H   -0.044294  -0.048498   0.000021  -0.000412  -0.005062  -0.000278
    16  H    0.000847   0.003173   0.008356  -0.058289  -0.001373   0.001056
    17  H    0.005276   0.009865   0.004405   0.000765  -0.042192  -0.000017
    18  H    0.009016   0.000058  -0.053043   0.001249  -0.000527   0.000085
    19  H    0.023864  -0.000449   0.251700  -0.000291   0.000004  -0.000013
    20  H   -0.000577   0.000227   0.030085   0.247504  -0.000001  -0.000007
    21  H    0.000486  -0.000888   0.000102  -0.001896   0.247635  -0.000003
             13         14         15         16         17         18
     1  C    0.412020  -0.010081   0.015379  -0.000546   0.006592   0.019280
     2  C   -0.008489   0.326633   0.021394  -0.016414  -0.023386  -0.063818
     3  C   -0.017214   0.030211   0.377820   0.000402  -0.058995  -0.019342
     4  C    0.007004   0.010203   0.011671   0.459949  -0.089948  -0.062129
     5  C    0.000523  -0.014508  -0.030994  -0.066166   0.437974   0.044800
     6  C   -0.013610  -0.002735  -0.015527  -0.055210   0.018951   0.410607
     7  O   -0.001893  -0.037120  -0.044294   0.000847   0.005276   0.009016
     8  O   -0.051435   0.007087  -0.048498   0.003173   0.009865   0.000058
     9  O   -0.000180   0.002177   0.000021   0.008356   0.004405  -0.053043
    10  O    0.000009  -0.000571  -0.000412  -0.058289   0.000765   0.001249
    11  O    0.000060   0.000085  -0.005062  -0.001373  -0.042192  -0.000527
    12  H   -0.039346   0.002202  -0.000278   0.001056  -0.000017   0.000085
    13  H    0.547027  -0.003766   0.000299   0.000051   0.000019   0.000019
    14  H   -0.003766   0.510470  -0.000065  -0.000099  -0.000017  -0.002280
    15  H    0.000299  -0.000065   0.546205  -0.000227  -0.002939   0.000019
    16  H    0.000051  -0.000099  -0.000227   0.537105   0.004485  -0.004558
    17  H    0.000019  -0.000017  -0.002939   0.004485   0.562338  -0.000147
    18  H    0.000019  -0.002280   0.000019  -0.004558  -0.000147   0.535974
    19  H   -0.000007  -0.000991   0.000079  -0.000178  -0.000918   0.005669
    20  H    0.000000  -0.000018  -0.000004   0.006106   0.001306  -0.001139
    21  H    0.000001   0.000000   0.002657   0.000104  -0.007003   0.000004
             19         20         21
     1  C    0.005224  -0.000851  -0.002428
     2  C   -0.026592   0.011410   0.006224
     3  C   -0.000621   0.000614  -0.041124
     4  C   -0.014840   0.037249   0.028039
     5  C    0.011657  -0.030083   0.026067
     6  C    0.008754  -0.047676  -0.010727
     7  O    0.023864  -0.000577   0.000486
     8  O   -0.000449   0.000227  -0.000888
     9  O    0.251700   0.030085   0.000102
    10  O   -0.000291   0.247504  -0.001896
    11  O    0.000004  -0.000001   0.247635
    12  H   -0.000013  -0.000007  -0.000003
    13  H   -0.000007   0.000000   0.000001
    14  H   -0.000991  -0.000018   0.000000
    15  H    0.000079  -0.000004   0.002657
    16  H   -0.000178   0.006106   0.000104
    17  H   -0.000918   0.001306  -0.007003
    18  H    0.005669  -0.001139   0.000004
    19  H    0.328974  -0.001979   0.000003
    20  H   -0.001979   0.341391   0.000020
    21  H    0.000003   0.000020   0.336349
 Mulliken atomic charges:
              1
     1  C   -0.152526
     2  C    0.298790
     3  C    0.026555
     4  C   -0.002930
     5  C    0.152976
     6  C   -0.057671
     7  O   -0.427176
     8  O   -0.446589
     9  O   -0.622461
    10  O   -0.618265
    11  O   -0.622672
    12  H    0.178147
    13  H    0.168909
    14  H    0.183183
    15  H    0.172757
    16  H    0.181428
    17  H    0.173586
    18  H    0.180204
    19  H    0.410952
    20  H    0.406422
    21  H    0.416380
 Sum of Mulliken atomic charges =   0.00000
 Mulliken charges with hydrogens summed into heavy atoms:
              1
     1  C    0.194530
     2  C    0.481972
     3  C    0.199312
     4  C    0.178498
     5  C    0.326562
     6  C    0.122533
     7  O   -0.427176
     8  O   -0.446589
     9  O   -0.211508
    10  O   -0.211843
    11  O   -0.206291
 Sum of Mulliken charges with hydrogens summed into heavy atoms =   0.00000
 Electronic spatial extent (au):  <R**2>=           1433.7888
 Charge=              0.0000 electrons
 Dipole moment (field-independent basis, Debye):
    X=              2.8514    Y=             -2.0244    Z=              2.4510  Tot=              4.2704
 Quadrupole moment (field-independent basis, Debye-Ang):
   XX=            -75.2007   YY=            -65.6759   ZZ=            -59.8098
   XY=             -2.7939   XZ=             -7.0604   YZ=             11.8021
 Traceless Quadrupole moment (field-independent basis, Debye-Ang):
   XX=             -8.3052   YY=              1.2196   ZZ=              7.0857
   XY=             -2.7939   XZ=             -7.0604   YZ=             11.8021
 Octapole moment (field-independent basis, Debye-Ang**2):
  XXX=             16.8847  YYY=             18.6790  ZZZ=              4.3389  XYY=             12.8053
  XXY=            -15.1098  XXZ=             11.2606  XZZ=             -1.9159  YZZ=              2.3391
  YYZ=             19.4297  XYZ=              2.4915
 Hexadecapole moment (field-independent basis, Debye-Ang**3):
 XXXX=           -843.4575 YYYY=           -654.9948 ZZZZ=           -258.9552 XXXY=              5.7824
 XXXZ=            -43.8142 YYYX=            -30.2757 YYYZ=             66.6475 ZZZX=            -17.4391
 ZZZY=              3.1221 XXYY=           -270.7571 XXZZ=           -186.5815 YYZZ=           -139.8127
 XXYZ=             19.3924 YYXZ=              1.7264 ZZXY=              5.3216
 N-N= 7.271849406627D+02 E-N=-2.884098184102D+03  KE= 6.053391260260D+02

 Test job not archived.
 1\1\GINC-COMPUTE-8-16\SP\RB3LYP\6-31+G(d,p)\C6H10O5\ASAROTTI.IQUIR\15-
 Apr-2019\0\\# B3LYP/6-31+G** test scrf=(pcm,solvent=water,smd,dovacuum
 )\\comment\\0,1\C,0,1.848517,-0.469694,-1.02604\C,0,0.985151,-1.292032
 ,-0.061779\C,0,1.020872,0.792879,0.715277\C,0,-1.042898,0.153167,-0.58
 5185\C,0,-0.46931,1.110027,0.477727\C,0,-0.507685,-1.28938,-0.400598\O
 ,0,1.139582,-0.550046,1.169413\O,0,1.764131,0.866716,-0.497377\O,0,-1.
 24391,-1.938749,0.642892\O,0,-2.461574,0.135717,-0.587098\O,0,-0.65979
 5,2.439087,0.010399\H,0,1.482267,-0.486968,-2.057622\H,0,2.892066,-0.8
 00694,-1.009093\H,0,1.350311,-2.306214,0.108382\H,0,1.475099,1.458708,
 1.454991\H,0,-0.730788,0.53504,-1.563\H,0,-0.999131,0.951736,1.428669\
 H,0,-0.703309,-1.86688,-1.309325\H,0,-0.848236,-1.643022,1.483192\H,0,
 -2.698684,-0.535656,0.080967\H,0,-0.534951,3.042357,0.760602\\Version=
 EM64L-G09RevC.01\State=1-A\HF=-610.8120671\RMSD=4.905e-09\Dipole=1.121
 8241,-0.7964618,0.9642976\Quadrupole=-6.1747379,0.9067185,5.2680193,-2
 .0771871,-5.2492616,8.7745472\PG=C01 [X(C6H10O5)]\\@


 DESK:  A WASTEBASKET WITH DRAWERS.
 Job cpu time:  0 days  0 hours  9 minutes 46.8 seconds.
 File lengths (MBytes):  RWF=     56 Int=      0 D2E=      0 Chk=      4 Scr=      1
 Normal termination of Gaussian 09 at Mon Apr 15 19:08:14 2019.
