 Entering Gaussian System, Link 0=g09
 Input=/home/mmarcarino.iquir/NMR/08_SRR_Levo16_OPTB_nmr.gjc
 Output=/home/mmarcarino.iquir/NMR/08_SRR_Levo16_OPTB_nmr.log
 Initial command:
 /share/apps/Gaussian09/EM64T.SSE4.2-enabled/g09/l1.exe /tmp/Gau-36528.inp -scrdir=/tmp/
 Entering Link 1 = /share/apps/Gaussian09/EM64T.SSE4.2-enabled/g09/l1.exe PID=     36529.
  
 Copyright (c) 1988,1990,1992,1993,1995,1998,2003,2009,2011,
            Gaussian, Inc.  All Rights Reserved.
  
 This is part of the Gaussian(R) 09 program.  It is based on
 the Gaussian(R) 03 system (copyright 2003, Gaussian, Inc.),
 the Gaussian(R) 98 system (copyright 1998, Gaussian, Inc.),
 the Gaussian(R) 94 system (copyright 1995, Gaussian, Inc.),
 the Gaussian 92(TM) system (copyright 1992, Gaussian, Inc.),
 the Gaussian 90(TM) system (copyright 1990, Gaussian, Inc.),
 the Gaussian 88(TM) system (copyright 1988, Gaussian, Inc.),
 the Gaussian 86(TM) system (copyright 1986, Carnegie Mellon
 University), and the Gaussian 82(TM) system (copyright 1983,
 Carnegie Mellon University). Gaussian is a federally registered
 trademark of Gaussian, Inc.
  
 This software contains proprietary and confidential information,
 including trade secrets, belonging to Gaussian, Inc.
  
 This software is provided under written license and may be
 used, copied, transmitted, or stored only in accord with that
 written license.
  
 The following legend is applicable only to US Government
 contracts under FAR:
  
                    RESTRICTED RIGHTS LEGEND
  
 Use, reproduction and disclosure by the US Government is
 subject to restrictions as set forth in subparagraphs (a)
 and (c) of the Commercial Computer Software - Restricted
 Rights clause in FAR 52.227-19.
  
 Gaussian, Inc.
 340 Quinnipiac St., Bldg. 40, Wallingford CT 06492
  
  
 ---------------------------------------------------------------
 Warning -- This program may not be used in any manner that
 competes with the business of Gaussian, Inc. or will provide
 assistance to any competitor of Gaussian, Inc.  The licensee
 of this program is prohibited from giving any competitor of
 Gaussian, Inc. access to this program.  By using this program,
 the user acknowledges that Gaussian, Inc. is engaged in the
 business of creating and licensing software in the field of
 computational chemistry and represents and warrants to the
 licensee that it is not a competitor of Gaussian, Inc. and that
 it will not use this program in any manner prohibited above.
 ---------------------------------------------------------------
  

 Cite this work as:
 Gaussian 09, Revision C.01,
 M. J. Frisch, G. W. Trucks, H. B. Schlegel, G. E. Scuseria, 
 M. A. Robb, J. R. Cheeseman, G. Scalmani, V. Barone, B. Mennucci, 
 G. A. Petersson, H. Nakatsuji, M. Caricato, X. Li, H. P. Hratchian, 
 A. F. Izmaylov, J. Bloino, G. Zheng, J. L. Sonnenberg, M. Hada, 
 M. Ehara, K. Toyota, R. Fukuda, J. Hasegawa, M. Ishida, T. Nakajima, 
 Y. Honda, O. Kitao, H. Nakai, T. Vreven, J. A. Montgomery, Jr., 
 J. E. Peralta, F. Ogliaro, M. Bearpark, J. J. Heyd, E. Brothers, 
 K. N. Kudin, V. N. Staroverov, T. Keith, R. Kobayashi, J. Normand, 
 K. Raghavachari, A. Rendell, J. C. Burant, S. S. Iyengar, J. Tomasi, 
 M. Cossi, N. Rega, J. M. Millam, M. Klene, J. E. Knox, J. B. Cross, 
 V. Bakken, C. Adamo, J. Jaramillo, R. Gomperts, R. E. Stratmann, 
 O. Yazyev, A. J. Austin, R. Cammi, C. Pomelli, J. W. Ochterski, 
 R. L. Martin, K. Morokuma, V. G. Zakrzewski, G. A. Voth, 
 P. Salvador, J. J. Dannenberg, S. Dapprich, A. D. Daniels, 
 O. Farkas, J. B. Foresman, J. V. Ortiz, J. Cioslowski, 
 and D. J. Fox, Gaussian, Inc., Wallingford CT, 2010.
 
 ******************************************
 Gaussian 09:  EM64L-G09RevC.01 23-Sep-2011
                12-Apr-2019 
 ******************************************
 %nprocshared=4
 Will use up to    4 processors via shared memory.
 ------------------------------------------------
 # mpw1pw91/6-31+g** nmr scrf=(pcm,solvent=water)
 ------------------------------------------------
 1/38=1/1;
 2/12=2,17=6,18=5,40=1/2;
 3/5=1,6=6,7=111,11=2,16=1,25=1,30=1,70=2201,72=1,74=-7/1,2,8,3;
 4//1;
 5/5=2,38=5,53=1/2;
 8/6=1,10=90,11=11/1;
 10/13=100,45=16/2;
 6/7=2,8=2,9=2,10=2,28=1/1;
 99/9=1/99;
 -------
 comment
 -------
 Charge =  0 Multiplicity = 1
 Symbolic Z-Matrix:
 6                     1.23212  -1.69934  -0.45417 
 6                    -0.11557  -1.40293   0.21011 
 6                     1.25133   0.2302    0.82188 
 6                    -0.92483   0.97981  -0.27766 
 6                     0.50788   1.4014    0.12325 
 6                    -1.0349   -0.51592  -0.67089 
 8                     0.3326   -0.67906   1.37673 
 8                     1.98878  -0.50304  -0.17675 
 8                    -2.4168   -0.84227  -0.52294 
 8                    -1.76825   1.25972   0.83324 
 8                     1.26509   1.88461  -0.97414 
 1                     1.17728  -1.84783  -1.5352 
 1                     1.72624  -2.5588    0.01081 
 1                    -0.63922  -2.29635   0.55572 
 1                     1.94162   0.56461   1.59892 
 1                    -1.22141   1.58842  -1.14434 
 1                     0.39276   2.22647   0.83389 
 1                    -0.74099  -0.62813  -1.7229 
 1                    -2.56222  -1.75122  -0.82921 
 1                    -2.54018   0.67437   0.73201 
 1                     1.7585    1.10955  -1.30399 
 
                          Input orientation:                          
 ---------------------------------------------------------------------
 Center     Atomic      Atomic             Coordinates (Angstroms)
 Number     Number       Type             X           Y           Z
 ---------------------------------------------------------------------
      1          6           0        1.232124   -1.699340   -0.454171
      2          6           0       -0.115571   -1.402926    0.210106
      3          6           0        1.251326    0.230200    0.821878
      4          6           0       -0.924827    0.979808   -0.277663
      5          6           0        0.507880    1.401399    0.123253
      6          6           0       -1.034896   -0.515921   -0.670888
      7          8           0        0.332600   -0.679063    1.376732
      8          8           0        1.988784   -0.503041   -0.176746
      9          8           0       -2.416799   -0.842271   -0.522939
     10          8           0       -1.768248    1.259717    0.833235
     11          8           0        1.265089    1.884605   -0.974136
     12          1           0        1.177277   -1.847827   -1.535195
     13          1           0        1.726239   -2.558801    0.010814
     14          1           0       -0.639224   -2.296348    0.555718
     15          1           0        1.941622    0.564614    1.598918
     16          1           0       -1.221413    1.588420   -1.144336
     17          1           0        0.392758    2.226468    0.833888
     18          1           0       -0.740994   -0.628127   -1.722897
     19          1           0       -2.562215   -1.751217   -0.829205
     20          1           0       -2.540181    0.674373    0.732010
     21          1           0        1.758502    1.109545   -1.303989
 ---------------------------------------------------------------------
                    Distance matrix (angstroms):
                    1          2          3          4          5
     1  C    0.000000
     2  C    1.531472   0.000000
     3  C    2.313395   2.215801   0.000000
     4  C    3.444042   2.563247   2.550793   0.000000
     5  C    3.236129   2.874104   1.553221   1.546325   0.000000
     6  C    2.566481   1.551801   2.830523   1.550466   2.585911
     7  O    2.280858   1.444248   1.406655   2.658947   2.435211
     8  O    1.442439   2.321154   1.441782   3.270803   2.431043
     9  O    3.748858   2.479383   4.051403   2.367723   3.742374
    10  O    4.406321   3.195199   3.190276   1.422604   2.388495
    11  O    3.621617   3.757195   2.441907   2.469709   1.418138
    12  H    1.092552   2.217086   3.143163   3.741089   3.708910
    13  H    1.095004   2.183582   2.943110   4.430928   4.144904
    14  H    2.208673   1.091725   3.166775   3.392535   3.895665
    15  H    3.137523   3.167342   1.091848   3.451155   2.221129
    16  H    4.159992   3.464903   3.438778   1.099770   2.152258
    17  H    4.216112   3.717526   2.173101   2.127378   1.094986
    18  H    2.578829   2.174389   3.343941   2.169781   3.014454
    19  H    3.813181   2.680959   4.603823   3.231677   4.502405
    20  H    4.612139   3.235164   3.818493   1.929274   3.192151
    21  H    2.981459   3.480969   2.355798   2.875836   1.919962
                    6          7          8          9         10
     6  C    0.000000
     7  O    2.467673   0.000000
     8  O    3.063818   2.277548   0.000000
     9  O    1.427603   3.345830   4.432165   0.000000
    10  O    2.439894   2.909952   4.271144   2.584217   0.000000
    11  O    3.338325   3.601182   2.619240   4.603882   3.585834
    12  H    2.722996   3.249432   2.076626   3.866935   4.893098
    13  H    3.501706   2.709497   2.080927   4.516208   5.241078
    14  H    2.197962   2.057697   3.264794   2.537245   3.741298
    15  H    3.896054   2.045740   2.072461   5.047518   3.851308
    16  H    2.164993   3.729909   3.951684   2.779090   2.077946
    17  H    3.438494   2.956418   3.319473   4.376271   2.367394
    18  H    1.098040   3.280686   3.139732   2.072216   3.339613
    19  H    1.970717   3.794157   4.763952   0.970117   3.529846
    20  H    2.377142   3.240421   4.766935   1.972392   0.974040
    21  H    3.293331   3.524001   1.980944   4.674694   4.126529
                   11         12         13         14         15
    11  O    0.000000
    12  H    3.775387   0.000000
    13  H    4.574565   1.788012   0.000000
    14  H    4.842234   2.805845   2.441560   0.000000
    15  H    2.969963   4.028245   3.510582   3.991758   0.000000
    16  H    2.509858   4.208833   5.217515   4.280251   4.310268
    17  H    2.036365   4.777856   5.035317   4.647390   2.397084
    18  H    3.301338   2.280935   3.580572   2.825846   4.433228
    19  H    5.280953   3.806778   4.443947   2.431681   5.616351
    20  H    4.342312   5.032018   5.401470   3.531275   4.566195
    21  H    0.976206   3.022801   3.896987   4.561547   2.959282
                   16         17         18         19         20
    16  H    0.000000
    17  H    2.631734   0.000000
    18  H    2.340644   3.996405   0.000000
    19  H    3.612511   5.226827   2.318806   0.000000
    20  H    2.468867   3.319866   3.310611   2.884678   0.000000
    21  H    3.022367   2.771875   3.072860   5.203650   4.776331
                   21
    21  H    0.000000
 Stoichiometry    C6H10O5
 Framework group  C1[X(C6H10O5)]
 Deg. of freedom    57
 Full point group                 C1      NOp   1
 Largest Abelian subgroup         C1      NOp   1
 Largest concise Abelian subgroup C1      NOp   1
                         Standard orientation:                         
 ---------------------------------------------------------------------
 Center     Atomic      Atomic             Coordinates (Angstroms)
 Number     Number       Type             X           Y           Z
 ---------------------------------------------------------------------
      1          6           0        1.232123   -1.699340   -0.454171
      2          6           0       -0.115572   -1.402926    0.210106
      3          6           0        1.251326    0.230199    0.821878
      4          6           0       -0.924827    0.979808   -0.277663
      5          6           0        0.507881    1.401399    0.123253
      6          6           0       -1.034896   -0.515921   -0.670888
      7          8           0        0.332600   -0.679063    1.376732
      8          8           0        1.988784   -0.503042   -0.176746
      9          8           0       -2.416799   -0.842270   -0.522939
     10          8           0       -1.768247    1.259718    0.833235
     11          8           0        1.265090    1.884604   -0.974136
     12          1           0        1.177276   -1.847827   -1.535195
     13          1           0        1.726238   -2.558802    0.010814
     14          1           0       -0.639225   -2.296348    0.555718
     15          1           0        1.941622    0.564613    1.598918
     16          1           0       -1.221412    1.588421   -1.144336
     17          1           0        0.392759    2.226468    0.833888
     18          1           0       -0.740994   -0.628127   -1.722897
     19          1           0       -2.562216   -1.751216   -0.829205
     20          1           0       -2.540181    0.674374    0.732010
     21          1           0        1.758503    1.109544   -1.303989
 ---------------------------------------------------------------------
 Rotational constants (GHZ):      1.5658409      1.2129535      0.9103619
 Standard basis: 6-31+G(d,p) (6D, 7F)
 There are   259 symmetry adapted basis functions of A   symmetry.
 Integral buffers will be    131072 words long.
 Raffenetti 2 integral format.
 Two-electron integral symmetry is turned on.
   259 basis functions,   422 primitive gaussians,   259 cartesian basis functions
    43 alpha electrons       43 beta electrons
       nuclear repulsion energy       728.3139600015 Hartrees.
 NAtoms=   21 NActive=   21 NUniq=   21 SFac= 1.00D+00 NAtFMM=   60 NAOKFM=F Big=F
 ------------------------------------------------------------------------------
 Polarizable Continuum Model (PCM)
 =================================
 Model                : PCM.
 Atomic radii         : UFF (Universal Force Field).
 Polarization charges : Total charges.
 Charge compensation  : None.
 Solution method      : Matrix inversion.
 Cavity type          : Scaled VdW (van der Waals Surface) (Alpha=1.100).
 Cavity algorithm     : GePol (No added spheres)
                        Default sphere list used, NSphG=   21.
                        Lebedev-Laikov grids with approx.  5.0 points / Ang**2.
                        Smoothing algorithm: Karplus/York (Gamma=1.0000).
                        Polarization charges: spherical gaussians, with
                                              point-specific exponents (IZeta= 3).
                        Self-potential: point-specific (ISelfS= 7).
                        Self-field    : sphere-specific E.n sum rule (ISelfD= 2).
 Solvent              : Water, Eps=  78.355300 Eps(inf)=   1.777849
 ------------------------------------------------------------------------------
 One-electron integrals computed using PRISM.
 NBasis=   259 RedAO= T  NBF=   259
 NBsUse=   259 1.00D-06 NBFU=   259
 Harris functional with IExCor=  908 diagonalized for initial guess.
 ExpMin= 4.38D-02 ExpMax= 5.48D+03 ExpMxC= 8.25D+02 IAcc=2 IRadAn=         4 AccDes= 0.00D+00
 HarFok:  IExCor=  908 AccDes= 0.00D+00 IRadAn=         4 IDoV= 1
 ScaDFX=  1.000000  1.000000  1.000000  1.000000
 FoFCou: FMM=F IPFlag=           0 FMFlag=      100000 FMFlg1=           0
         NFxFlg=           0 DoJE=T BraDBF=F KetDBF=T FulRan=T
         Omega=  0.000000  0.000000  1.000000  0.000000  0.000000 ICntrl=     500 IOpCl=  0
         NMat0=    1 NMatS0=    1 NMatT0=    0 NMatD0=    1 NMtDS0=    0 NMtDT0=    0
         I1Cent=           4 NGrid=           0.
 Petite list used in FoFCou.
 Initial guess orbital symmetries:
       Occupied  (A) (A) (A) (A) (A) (A) (A) (A) (A) (A) (A) (A)
                 (A) (A) (A) (A) (A) (A) (A) (A) (A) (A) (A) (A)
                 (A) (A) (A) (A) (A) (A) (A) (A) (A) (A) (A) (A)
                 (A) (A) (A) (A) (A) (A) (A)
       Virtual   (A) (A) (A) (A) (A) (A) (A) (A) (A) (A) (A) (A)
                 (A) (A) (A) (A) (A) (A) (A) (A) (A) (A) (A) (A)
                 (A) (A) (A) (A) (A) (A) (A) (A) (A) (A) (A) (A)
                 (A) (A) (A) (A) (A) (A) (A) (A) (A) (A) (A) (A)
                 (A) (A) (A) (A) (A) (A) (A) (A) (A) (A) (A) (A)
                 (A) (A) (A) (A) (A) (A) (A) (A) (A) (A) (A) (A)
                 (A) (A) (A) (A) (A) (A) (A) (A) (A) (A) (A) (A)
                 (A) (A) (A) (A) (A) (A) (A) (A) (A) (A) (A) (A)
                 (A) (A) (A) (A) (A) (A) (A) (A) (A) (A) (A) (A)
                 (A) (A) (A) (A) (A) (A) (A) (A) (A) (A) (A) (A)
                 (A) (A) (A) (A) (A) (A) (A) (A) (A) (A) (A) (A)
                 (A) (A) (A) (A) (A) (A) (A) (A) (A) (A) (A) (A)
                 (A) (A) (A) (A) (A) (A) (A) (A) (A) (A) (A) (A)
                 (A) (A) (A) (A) (A) (A) (A) (A) (A) (A) (A) (A)
                 (A) (A) (A) (A) (A) (A) (A) (A) (A) (A) (A) (A)
                 (A) (A) (A) (A) (A) (A) (A) (A) (A) (A) (A) (A)
                 (A) (A) (A) (A) (A) (A) (A) (A) (A) (A) (A) (A)
                 (A) (A) (A) (A) (A) (A) (A) (A) (A) (A) (A) (A)
 The electronic state of the initial guess is 1-A.
 Requested convergence on RMS density matrix=1.00D-08 within 128 cycles.
 Requested convergence on MAX density matrix=1.00D-06.
 Requested convergence on             energy=1.00D-06.
 No special actions if energy rises.
 Error on total polarization charges =  0.01172
 SCF Done:  E(RmPW1PW91) =  -610.643336691     A.U. after   12 cycles
             Convg  =    0.4767D-08             -V/T =  2.0090
 Range of M.O.s used for correlation:     1   259
 NBasis=   259 NAE=    43 NBE=    43 NFC=     0 NFV=     0
 NROrb=    259 NOA=    43 NOB=    43 NVA=   216 NVB=   216

 **** Warning!!: The largest alpha MO coefficient is  0.54009831D+02

 NEqPCM:  Using equilibrium solvation (IEInf=0, Eps=  78.3553, EpsInf=   1.7778)
          Differentiating once with respect to magnetic field using GIAOs.
          Electric field/nuclear overlap derivatives assumed to be zero.
 FoFCou: FMM=F IPFlag=           0 FMFlag=    10101102 FMFlg1=           0
         NFxFlg=    40000000 DoJE=F BraDBF=F KetDBF=T FulRan=T
         Omega=  0.000000  0.000000  1.000000  0.000000  0.000000 ICntrl=    6100 IOpCl=  0
         NMat0=    1 NMatS0=    1 NMatT0=    0 NMatD0=    1 NMtDS0=    0 NMtDT0=    0
         I1Cent=           7 NGrid=        1536.
 Symmetry not used in FoFCou.
          There are     3 degrees of freedom in the 1st order CPHF.  IDoFFX=0.
      3 vectors produced by pass  0 Test12= 3.10D-13 3.33D-08 XBig12= 2.26D+01 7.54D-01.
 AX will form     3 AO Fock derivatives at one time.
      3 vectors produced by pass  1 Test12= 3.10D-13 3.33D-08 XBig12= 5.06D-02 2.49D-02.
      3 vectors produced by pass  2 Test12= 3.10D-13 3.33D-08 XBig12= 1.22D-04 1.55D-03.
      3 vectors produced by pass  3 Test12= 3.10D-13 3.33D-08 XBig12= 5.91D-07 1.24D-04.
      3 vectors produced by pass  4 Test12= 3.10D-13 3.33D-08 XBig12= 1.79D-09 6.60D-06.
      3 vectors produced by pass  5 Test12= 3.10D-13 3.33D-08 XBig12= 6.12D-12 4.41D-07.
 Inverted reduced A of dimension    18 with in-core refinement.
 Calculating GIAO nuclear magnetic shielding tensors.
 SCF GIAO Magnetic shielding tensor (ppm):
      1  C    Isotropic =   128.0573   Anisotropy =    47.0390
   XX=   134.4995   YX=    15.9771   ZX=    -5.3647
   XY=    26.4053   YY=   138.1153   ZY=    12.2707
   XZ=     6.4342   YZ=    11.8708   ZZ=   111.5570
   Eigenvalues:   104.3177   120.4375   159.4166
      2  C    Isotropic =   114.8871   Anisotropy =    38.2135
   XX=   116.6588   YX=    10.3342   ZX=    11.7032
   XY=    -0.1242   YY=   108.3599   ZY=    19.3513
   XZ=    14.1358   YZ=    16.2041   ZZ=   119.6426
   Eigenvalues:    94.6365   109.6620   140.3628
      3  C    Isotropic =    96.2866   Anisotropy =    38.3860
   XX=    95.5192   YX=    -7.9967   ZX=   -30.2630
   XY=     6.9506   YY=    99.7936   ZY=     6.3841
   XZ=   -22.7383   YZ=     4.7660   ZZ=    93.5470
   Eigenvalues:    67.5955    99.3870   121.8773
      4  C    Isotropic =   124.0919   Anisotropy =    49.4527
   XX=   133.8870   YX=    -5.8083   ZX=   -26.9934
   XY=     1.7990   YY=   101.2046   ZY=    -6.8971
   XZ=   -15.9233   YZ=     2.0116   ZZ=   137.1840
   Eigenvalues:   100.4773   114.7379   157.0604
      5  C    Isotropic =   124.7715   Anisotropy =    44.5361
   XX=   132.6587   YX=    15.3429   ZX=   -22.4083
   XY=     6.4393   YY=   107.7117   ZY=     0.8961
   XZ=   -14.1771   YZ=   -11.8524   ZZ=   133.9440
   Eigenvalues:   103.5399   116.3123   154.4622
      6  C    Isotropic =   122.1240   Anisotropy =    40.8444
   XX=   148.8175   YX=     1.9456   ZX=     3.9127
   XY=    -9.5674   YY=   108.3074   ZY=    -4.1807
   XZ=     0.5282   YZ=    -5.8008   ZZ=   109.2473
   Eigenvalues:   103.7241   113.2944   149.3537
      7  O    Isotropic =   245.0708   Anisotropy =    68.4209
   XX=   231.0237   YX=    -4.3891   ZX=   -40.7378
   XY=    24.3458   YY=   255.8853   ZY=    21.0977
   XZ=   -38.2061   YZ=    38.5351   ZZ=   248.3034
   Eigenvalues:   188.3742   256.1534   290.6848
      8  O    Isotropic =   276.2253   Anisotropy =   101.5664
   XX=   290.4363   YX=    47.4161   ZX=   -54.7356
   XY=    24.9072   YY=   284.9615   ZY=    47.0108
   XZ=   -82.1954   YZ=    25.0497   ZZ=   253.2779
   Eigenvalues:   177.1224   307.6172   343.9362
      9  O    Isotropic =   290.6602   Anisotropy =    38.7189
   XX=   297.9330   YX=   -10.4192   ZX=    14.4364
   XY=     9.2529   YY=   315.9810   ZY=    -9.3180
   XZ=    25.4004   YZ=     2.1998   ZZ=   258.0665
   Eigenvalues:   249.6785   305.8292   316.4728
     10  O    Isotropic =   307.4887   Anisotropy =    45.1811
   XX=   323.0829   YX=    24.2934   ZX=    11.4521
   XY=    23.4986   YY=   298.2979   ZY=    -6.3614
   XZ=    -8.9106   YZ=     1.5563   ZZ=   301.0853
   Eigenvalues:   283.3569   301.4998   337.6094
     11  O    Isotropic =   302.5205   Anisotropy =    43.8843
   XX=   315.3944   YX=   -22.1647   ZX=   -18.9863
   XY=   -13.0468   YY=   312.6613   ZY=   -19.0535
   XZ=   -13.3139   YZ=   -10.3381   ZZ=   279.5058
   Eigenvalues:   264.5699   311.2149   331.7767
     12  H    Isotropic =    27.8139   Anisotropy =     7.9816
   XX=    25.5593   YX=     0.2454   ZX=     0.6552
   XY=    -0.1625   YY=    27.8826   ZY=     4.1241
   XZ=    -1.0241   YZ=     3.9878   ZZ=    29.9999
   Eigenvalues:    24.7240    25.5828    33.1350
     13  H    Isotropic =    27.8740   Anisotropy =    11.0330
   XX=    26.6193   YX=    -2.3448   ZX=    -0.0817
   XY=    -3.1873   YY=    34.2309   ZY=    -0.6890
   XZ=     1.0462   YZ=    -1.3378   ZZ=    22.7717
   Eigenvalues:    22.6654    25.7272    35.2293
     14  H    Isotropic =    27.2590   Anisotropy =     6.5387
   XX=    26.9735   YX=     1.7136   ZX=     0.4953
   XY=     3.1594   YY=    30.2417   ZY=    -1.4058
   XZ=     0.7203   YZ=    -0.8875   ZZ=    24.5617
   Eigenvalues:    23.8563    26.3025    31.6181
     15  H    Isotropic =    25.9576   Anisotropy =     8.8358
   XX=    25.8297   YX=     1.4716   ZX=     3.1941
   XY=     1.4999   YY=    24.4511   ZY=     2.8654
   XZ=     4.1108   YZ=     2.9047   ZZ=    27.5919
   Eigenvalues:    22.4416    23.5830    31.8481
     16  H    Isotropic =    27.5527   Anisotropy =     6.9621
   XX=    25.7841   YX=    -1.0606   ZX=    -0.9235
   XY=    -1.5239   YY=    26.8897   ZY=    -2.6157
   XZ=    -0.1414   YZ=    -4.2089   ZZ=    29.9844
   Eigenvalues:    23.7554    26.7087    32.1941
     17  H    Isotropic =    27.7731   Anisotropy =     5.7820
   XX=    26.5357   YX=     1.1189   ZX=    -1.3221
   XY=     1.2756   YY=    29.5053   ZY=     2.4952
   XZ=    -1.7963   YZ=     3.5778   ZZ=    27.2784
   Eigenvalues:    23.7652    27.9264    31.6278
     18  H    Isotropic =    27.7006   Anisotropy =     4.5961
   XX=    29.2085   YX=    -0.1188   ZX=    -0.6569
   XY=     0.6734   YY=    23.2790   ZY=     0.4747
   XZ=     0.5817   YZ=     1.6468   ZZ=    30.6144
   Eigenvalues:    23.1159    29.2213    30.7647
     19  H    Isotropic =    29.3329   Anisotropy =    18.9552
   XX=    28.2857   YX=     5.7302   ZX=     1.3371
   XY=     5.2938   YY=    37.4549   ZY=     6.4882
   XZ=     2.4431   YZ=     5.3501   ZZ=    22.2581
   Eigenvalues:    20.2246    25.8044    41.9697
     20  H    Isotropic =    28.2556   Anisotropy =    17.9458
   XX=    35.5521   YX=     7.8115   ZX=    -2.3562
   XY=     6.9406   YY=    28.3907   ZY=     6.7249
   XZ=    -2.5703   YZ=     4.5911   ZZ=    20.8241
   Eigenvalues:    15.9985    28.5488    40.2195
     21  H    Isotropic =    28.6381   Anisotropy =    16.1401
   XX=    25.8301   YX=    -7.3018   ZX=    -5.8572
   XY=    -6.5154   YY=    34.5818   ZY=     0.4652
   XZ=    -7.3232   YZ=     0.2767   ZZ=    25.5023
   Eigenvalues:    17.6915    28.8246    39.3981
 End of Minotr Frequency-dependent properties file   721 does not exist.
 End of Minotr Frequency-dependent properties file   722 does not exist.

 **********************************************************************

            Population analysis using the SCF density.

 **********************************************************************

 Orbital symmetries:
       Occupied  (A) (A) (A) (A) (A) (A) (A) (A) (A) (A) (A) (A)
                 (A) (A) (A) (A) (A) (A) (A) (A) (A) (A) (A) (A)
                 (A) (A) (A) (A) (A) (A) (A) (A) (A) (A) (A) (A)
                 (A) (A) (A) (A) (A) (A) (A)
       Virtual   (A) (A) (A) (A) (A) (A) (A) (A) (A) (A) (A) (A)
                 (A) (A) (A) (A) (A) (A) (A) (A) (A) (A) (A) (A)
                 (A) (A) (A) (A) (A) (A) (A) (A) (A) (A) (A) (A)
                 (A) (A) (A) (A) (A) (A) (A) (A) (A) (A) (A) (A)
                 (A) (A) (A) (A) (A) (A) (A) (A) (A) (A) (A) (A)
                 (A) (A) (A) (A) (A) (A) (A) (A) (A) (A) (A) (A)
                 (A) (A) (A) (A) (A) (A) (A) (A) (A) (A) (A) (A)
                 (A) (A) (A) (A) (A) (A) (A) (A) (A) (A) (A) (A)
                 (A) (A) (A) (A) (A) (A) (A) (A) (A) (A) (A) (A)
                 (A) (A) (A) (A) (A) (A) (A) (A) (A) (A) (A) (A)
                 (A) (A) (A) (A) (A) (A) (A) (A) (A) (A) (A) (A)
                 (A) (A) (A) (A) (A) (A) (A) (A) (A) (A) (A) (A)
                 (A) (A) (A) (A) (A) (A) (A) (A) (A) (A) (A) (A)
                 (A) (A) (A) (A) (A) (A) (A) (A) (A) (A) (A) (A)
                 (A) (A) (A) (A) (A) (A) (A) (A) (A) (A) (A) (A)
                 (A) (A) (A) (A) (A) (A) (A) (A) (A) (A) (A) (A)
                 (A) (A) (A) (A) (A) (A) (A) (A) (A) (A) (A) (A)
                 (A) (A) (A) (A) (A) (A) (A) (A) (A) (A) (A) (A)
 The electronic state is 1-A.
 Alpha  occ. eigenvalues --  -19.28005 -19.27853 -19.27435 -19.25830 -19.25310
 Alpha  occ. eigenvalues --  -10.36251 -10.32134 -10.32066 -10.31132 -10.31082
 Alpha  occ. eigenvalues --  -10.31045  -1.14813  -1.08804  -1.06883  -1.05280
 Alpha  occ. eigenvalues --   -1.04177  -0.82495  -0.80317  -0.71164  -0.68449
 Alpha  occ. eigenvalues --   -0.65221  -0.59836  -0.57909  -0.56046  -0.55748
 Alpha  occ. eigenvalues --   -0.52933  -0.50057  -0.47951  -0.47348  -0.47018
 Alpha  occ. eigenvalues --   -0.44478  -0.43014  -0.42317  -0.40127  -0.39922
 Alpha  occ. eigenvalues --   -0.38116  -0.36601  -0.36434  -0.33425  -0.31473
 Alpha  occ. eigenvalues --   -0.31187  -0.29535  -0.27324
 Alpha virt. eigenvalues --    0.00570   0.01048   0.02388   0.02793   0.03784
 Alpha virt. eigenvalues --    0.04456   0.04669   0.05139   0.05812   0.08218
 Alpha virt. eigenvalues --    0.09154   0.09214   0.09751   0.10708   0.11218
 Alpha virt. eigenvalues --    0.12076   0.12402   0.13294   0.13592   0.14096
 Alpha virt. eigenvalues --    0.15047   0.15904   0.16343   0.16664   0.17861
 Alpha virt. eigenvalues --    0.17972   0.18792   0.18964   0.20389   0.21100
 Alpha virt. eigenvalues --    0.21733   0.21939   0.23174   0.23826   0.24300
 Alpha virt. eigenvalues --    0.24826   0.24936   0.25884   0.26096   0.26746
 Alpha virt. eigenvalues --    0.28072   0.29084   0.29518   0.30321   0.30487
 Alpha virt. eigenvalues --    0.31249   0.32292   0.32702   0.33362   0.33770
 Alpha virt. eigenvalues --    0.35315   0.35816   0.36107   0.36762   0.37457
 Alpha virt. eigenvalues --    0.37734   0.38700   0.39102   0.39959   0.40297
 Alpha virt. eigenvalues --    0.41350   0.43182   0.44121   0.44943   0.48540
 Alpha virt. eigenvalues --    0.50324   0.63743   0.67271   0.68485   0.70350
 Alpha virt. eigenvalues --    0.72601   0.73164   0.75071   0.75972   0.78721
 Alpha virt. eigenvalues --    0.79242   0.81885   0.82759   0.84043   0.85760
 Alpha virt. eigenvalues --    0.87318   0.90941   0.91671   0.95338   0.98618
 Alpha virt. eigenvalues --    1.00780   1.02801   1.04544   1.05388   1.06759
 Alpha virt. eigenvalues --    1.08747   1.09610   1.11682   1.12646   1.14731
 Alpha virt. eigenvalues --    1.19989   1.21572   1.24389   1.26356   1.27743
 Alpha virt. eigenvalues --    1.27992   1.30276   1.31287   1.32530   1.33154
 Alpha virt. eigenvalues --    1.35522   1.36858   1.38486   1.38907   1.42509
 Alpha virt. eigenvalues --    1.43333   1.45434   1.47359   1.48626   1.49872
 Alpha virt. eigenvalues --    1.53896   1.54140   1.56012   1.58580   1.59123
 Alpha virt. eigenvalues --    1.61194   1.64126   1.64759   1.67377   1.69422
 Alpha virt. eigenvalues --    1.70521   1.72085   1.74888   1.76851   1.78178
 Alpha virt. eigenvalues --    1.80953   1.82116   1.84247   1.87541   1.88441
 Alpha virt. eigenvalues --    1.90788   1.93336   1.95561   1.96549   1.97797
 Alpha virt. eigenvalues --    1.99626   2.00689   2.04737   2.04996   2.07392
 Alpha virt. eigenvalues --    2.08016   2.13437   2.13527   2.14679   2.17228
 Alpha virt. eigenvalues --    2.19773   2.22295   2.26016   2.28447   2.33081
 Alpha virt. eigenvalues --    2.34448   2.36561   2.38201   2.41251   2.42371
 Alpha virt. eigenvalues --    2.44411   2.49181   2.50309   2.53577   2.55716
 Alpha virt. eigenvalues --    2.56583   2.60114   2.60397   2.63402   2.64457
 Alpha virt. eigenvalues --    2.64888   2.66966   2.67713   2.69623   2.71612
 Alpha virt. eigenvalues --    2.71900   2.73296   2.74026   2.74870   2.77871
 Alpha virt. eigenvalues --    2.80992   2.84866   2.86862   2.87826   2.91477
 Alpha virt. eigenvalues --    2.94894   2.96623   2.99070   3.01278   3.04663
 Alpha virt. eigenvalues --    3.06753   3.09175   3.12787   3.14394   3.19645
 Alpha virt. eigenvalues --    3.33882   3.42272   3.44210   3.45574   3.48942
 Alpha virt. eigenvalues --    3.50868   3.52665   3.54016   3.59662   3.61081
 Alpha virt. eigenvalues --    4.29567   4.31116   4.38574   4.47202   4.52906
 Alpha virt. eigenvalues --    4.57991   4.65954   4.82306   4.90805   4.94620
 Alpha virt. eigenvalues --    5.05513
          Condensed to atoms (all electrons):
              1          2          3          4          5          6
     1  C    5.601054  -0.000936  -0.262640   0.149883  -0.025847  -0.276561
     2  C   -0.000936   6.419588  -0.435511  -0.027222   0.079070  -0.407120
     3  C   -0.262640  -0.435511   6.270106  -0.290721  -0.377616   0.351353
     4  C    0.149883  -0.027222  -0.290721   6.711083  -0.583903  -0.359360
     5  C   -0.025847   0.079070  -0.377616  -0.583903   6.961968  -0.251477
     6  C   -0.276561  -0.407120   0.351353  -0.359360  -0.251477   6.633033
     7  O   -0.037203   0.148950   0.331944   0.093618  -0.227993  -0.172476
     8  O    0.138633  -0.136021   0.238823  -0.006401  -0.201858   0.109721
     9  O    0.022744  -0.050663  -0.023247  -0.107391   0.038869   0.164092
    10  O    0.007772   0.017412   0.001179   0.184249  -0.067278  -0.052146
    11  O    0.020920  -0.002628  -0.091513  -0.128940   0.283911   0.004839
    12  H    0.462911  -0.120067   0.019413   0.007174   0.005742  -0.003252
    13  H    0.382385  -0.016425  -0.014498  -0.004253   0.004139   0.024252
    14  H    0.013180   0.323846  -0.003512   0.028281   0.006314  -0.024896
    15  H    0.014248   0.017099   0.329539   0.025901  -0.020069  -0.000237
    16  H    0.000037   0.026338   0.018599   0.345153  -0.061598  -0.010076
    17  H   -0.002770  -0.027684   0.005497  -0.035776   0.347569   0.054939
    18  H    0.052716  -0.095180  -0.013558  -0.057634   0.017810   0.384731
    19  H   -0.002334  -0.044164  -0.000711   0.018176  -0.000229   0.039040
    20  H    0.002764  -0.001386  -0.008535  -0.013945   0.028822  -0.029480
    21  H    0.005438  -0.011216  -0.023958  -0.007963  -0.012707   0.019831
              7          8          9         10         11         12
     1  C   -0.037203   0.138633   0.022744   0.007772   0.020920   0.462911
     2  C    0.148950  -0.136021  -0.050663   0.017412  -0.002628  -0.120067
     3  C    0.331944   0.238823  -0.023247   0.001179  -0.091513   0.019413
     4  C    0.093618  -0.006401  -0.107391   0.184249  -0.128940   0.007174
     5  C   -0.227993  -0.201858   0.038869  -0.067278   0.283911   0.005742
     6  C   -0.172476   0.109721   0.164092  -0.052146   0.004839  -0.003252
     7  O    8.319176  -0.092629   0.016958   0.005620   0.013181   0.013692
     8  O   -0.092629   8.493272  -0.002108  -0.000518  -0.013631  -0.060392
     9  O    0.016958  -0.002108   8.341004  -0.014919  -0.001131   0.000422
    10  O    0.005620  -0.000518  -0.014919   8.276090   0.007172  -0.000115
    11  O    0.013181  -0.013631  -0.001131   0.007172   8.212071   0.001134
    12  H    0.013692  -0.060392   0.000422  -0.000115   0.001134   0.521805
    13  H   -0.005953  -0.038216  -0.000206   0.000053  -0.000620  -0.034390
    14  H   -0.038115   0.011542  -0.002550  -0.001016   0.000033   0.001742
    15  H   -0.054656  -0.028055   0.000074  -0.001340   0.002868  -0.000254
    16  H    0.001781  -0.002974   0.005038  -0.047695  -0.001310  -0.000008
    17  H   -0.000996   0.007666  -0.001251  -0.004053  -0.053180  -0.000002
    18  H    0.008558  -0.002837  -0.037519   0.006842   0.002041   0.002169
    19  H   -0.001133   0.000227   0.244870   0.001493  -0.000048   0.000050
    20  H   -0.001454  -0.000029   0.025537   0.250694  -0.000330   0.000000
    21  H    0.000469   0.031979  -0.000126  -0.000492   0.255473  -0.000108
             13         14         15         16         17         18
     1  C    0.382385   0.013180   0.014248   0.000037  -0.002770   0.052716
     2  C   -0.016425   0.323846   0.017099   0.026338  -0.027684  -0.095180
     3  C   -0.014498  -0.003512   0.329539   0.018599   0.005497  -0.013558
     4  C   -0.004253   0.028281   0.025901   0.345153  -0.035776  -0.057634
     5  C    0.004139   0.006314  -0.020069  -0.061598   0.347569   0.017810
     6  C    0.024252  -0.024896  -0.000237  -0.010076   0.054939   0.384731
     7  O   -0.005953  -0.038115  -0.054656   0.001781  -0.000996   0.008558
     8  O   -0.038216   0.011542  -0.028055  -0.002974   0.007666  -0.002837
     9  O   -0.000206  -0.002550   0.000074   0.005038  -0.001251  -0.037519
    10  O    0.000053  -0.001016  -0.001340  -0.047695  -0.004053   0.006842
    11  O   -0.000620   0.000033   0.002868  -0.001310  -0.053180   0.002041
    12  H   -0.034390   0.001742  -0.000254  -0.000008  -0.000002   0.002169
    13  H    0.522673  -0.002893   0.000502   0.000002   0.000006   0.000134
    14  H   -0.002893   0.491898   0.000055  -0.000135   0.000008   0.001832
    15  H    0.000502   0.000055   0.529066  -0.000141  -0.004589   0.000029
    16  H    0.000002  -0.000135  -0.000141   0.561871  -0.002553  -0.003778
    17  H    0.000006   0.000008  -0.004589  -0.002553   0.527052  -0.000136
    18  H    0.000134   0.001832   0.000029  -0.003778  -0.000136   0.553127
    19  H   -0.000024   0.001822   0.000000  -0.000187   0.000004  -0.004484
    20  H    0.000001  -0.000029   0.000014  -0.000448   0.000204   0.000546
    21  H    0.000071  -0.000013   0.000077  -0.000011   0.005710  -0.000103
             19         20         21
     1  C   -0.002334   0.002764   0.005438
     2  C   -0.044164  -0.001386  -0.011216
     3  C   -0.000711  -0.008535  -0.023958
     4  C    0.018176  -0.013945  -0.007963
     5  C   -0.000229   0.028822  -0.012707
     6  C    0.039040  -0.029480   0.019831
     7  O   -0.001133  -0.001454   0.000469
     8  O    0.000227  -0.000029   0.031979
     9  O    0.244870   0.025537  -0.000126
    10  O    0.001493   0.250694  -0.000492
    11  O   -0.000048  -0.000330   0.255473
    12  H    0.000050   0.000000  -0.000108
    13  H   -0.000024   0.000001   0.000071
    14  H    0.001822  -0.000029  -0.000013
    15  H    0.000000   0.000014   0.000077
    16  H   -0.000187  -0.000448  -0.000011
    17  H    0.000004   0.000204   0.005710
    18  H   -0.004484   0.000546  -0.000103
    19  H    0.339971  -0.000382   0.000000
    20  H   -0.000382   0.346736   0.000013
    21  H    0.000000   0.000013   0.344911
 Mulliken atomic charges:
              1
     1  C   -0.266396
     2  C    0.343920
     3  C   -0.020433
     4  C    0.059993
     5  C    0.056362
     6  C   -0.198750
     7  O   -0.321339
     8  O   -0.446193
     9  O   -0.618497
    10  O   -0.569004
    11  O   -0.510312
    12  H    0.182333
    13  H    0.183261
    14  H    0.192608
    15  H    0.189870
    16  H    0.172093
    17  H    0.184334
    18  H    0.184695
    19  H    0.408043
    20  H    0.400688
    21  H    0.392723
 Sum of Mulliken atomic charges =   0.00000
 Mulliken charges with hydrogens summed into heavy atoms:
              1
     1  C    0.099198
     2  C    0.536528
     3  C    0.169438
     4  C    0.232086
     5  C    0.240696
     6  C   -0.014055
     7  O   -0.321339
     8  O   -0.446193
     9  O   -0.210454
    10  O   -0.168315
    11  O   -0.117589
 Sum of Mulliken charges with hydrogens summed into heavy atoms =   0.00000
 Electronic spatial extent (au):  <R**2>=           1422.1674
 Charge=              0.0000 electrons
 Dipole moment (field-independent basis, Debye):
    X=             -0.5344    Y=             -6.0242    Z=             -2.6808  Tot=              6.6154
 Quadrupole moment (field-independent basis, Debye-Ang):
   XX=            -67.3265   YY=            -62.2090   ZZ=            -65.8973
   XY=              4.0188   XZ=              4.4362   YZ=              6.1115
 Traceless Quadrupole moment (field-independent basis, Debye-Ang):
   XX=             -2.1822   YY=              2.9353   ZZ=             -0.7531
   XY=              4.0188   XZ=              4.4362   YZ=              6.1115
 Octapole moment (field-independent basis, Debye-Ang**2):
  XXX=            -14.9783  YYY=            -42.9598  ZZZ=            -10.8378  XYY=            -12.1417
  XXY=            -16.0148  XXZ=              1.0279  XZZ=              4.3076  YZZ=             -5.0872
  YYZ=              0.0417  XYZ=              5.8330
 Hexadecapole moment (field-independent basis, Debye-Ang**3):
 XXXX=           -821.0903 YYYY=           -629.4341 ZZZZ=           -292.0687 XXXY=             35.7170
 XXXZ=             -3.1600 YYYX=             11.3350 YYYZ=             24.8579 ZZZX=              0.3141
 ZZZY=             12.8066 XXYY=           -229.1123 XXZZ=           -169.0610 YYZZ=           -160.4938
 XXYZ=             11.5200 YYXZ=             27.2279 ZZXY=             11.1886
 N-N= 7.283139600015D+02 E-N=-2.886486452625D+03  KE= 6.052032022355D+02
 1\1\GINC-COMPUTE-8-11\SP\RmPW1PW91\6-31+G(d,p)\C6H10O5\MMARCARINO.IQUI
 R\12-Apr-2019\0\\# mpw1pw91/6-31+g** nmr scrf=(pcm,solvent=water)\\com
 ment\\0,1\C,0,1.232124,-1.69934,-0.454171\C,0,-0.115571,-1.402926,0.21
 0106\C,0,1.251326,0.2302,0.821878\C,0,-0.924827,0.979808,-0.277663\C,0
 ,0.50788,1.401399,0.123253\C,0,-1.034896,-0.515921,-0.670888\O,0,0.332
 6,-0.679063,1.376732\O,0,1.988784,-0.503041,-0.176746\O,0,-2.416799,-0
 .842271,-0.522939\O,0,-1.768248,1.259717,0.833235\O,0,1.265089,1.88460
 5,-0.974136\H,0,1.177277,-1.847827,-1.535195\H,0,1.726239,-2.558801,0.
 010814\H,0,-0.639224,-2.296348,0.555718\H,0,1.941622,0.564614,1.598918
 \H,0,-1.221413,1.58842,-1.144336\H,0,0.392758,2.226468,0.833888\H,0,-0
 .740994,-0.628127,-1.722897\H,0,-2.562215,-1.751217,-0.829205\H,0,-2.5
 40181,0.674373,0.73201\H,0,1.758502,1.109545,-1.303989\\Version=EM64L-
 G09RevC.01\State=1-A\HF=-610.6433367\RMSD=4.767e-09\Dipole=-0.2102609,
 -2.3700941,-1.0547086\Quadrupole=-1.6224202,2.182303,-0.5598827,2.9878
 731,3.2982234,4.5437582\PG=C01 [X(C6H10O5)]\\@


 "THE ACADEMIC HIERARCHY"


 THE PRESIDENT:
   LEAPS TALL BUILDINGS IN A SINGLE BOUND,
     IS MORE POWERFUL THAN A LOCOMOTIVE,
       IS FASTER THAN A SPEEDING BULLET,
         WALKS ON WATER,
           GIVES POLICY TO GOD.

 THE VICE PRESIDENT FOR ACADEMIC AFFAIRS:
   LEAPS SHORT BUILDINGS IN A SINGLE BOUND,
     IS MORE POWERFUL THAN A SWITCH ENGINE,
       IS JUST AS FAST AS A SPEEDING BULLET,
         WALKS ON WATER IF SEA IS CALM,
           TALKS WITH GOD.

 PROFESSOR:
   LEAPS SHORT BUILDINGS WITH A RUNNING START AND FAVORABLE WINDS,
     IS ALMOST AS POWERFUL AS A SWITCH ENGINE,
       CAN FIRE A SPEEDING BULLET,
         WALKS ON WATER IN AN INDOOR SWIMMING POOL,
          TALKS WITH GOD IF SPECIAL REQUEST IS APPROVED.

 ASSOCIATE PROFESSOR:
   BARELY CLEARS A QUONSET HUT,
     LOSES TUG OF WAR WITH LOCOMOTIVE,
       MISFIRES FREQUENTLY,
         SWIMS WELL,
           IS OCCASIONALLY ADDRESSED BY GOD.

 ASSISTANT PROFESSOR:
   MAKES HIGH MARKS ON WALLS WHEN TRYING TO LEAP TALL BUILDINGS,
     IS RUN OVER BY LOCOMOTIVES,
       CAN SOMETIMES HANDLE A GUN WITHOUT INFLICTING SELF INJURY,
         DOG PADDLES,
           TALKS TO ANIMALS.

 GRADUATE STUDENT:
   RUNS INTO BUILDINGS,
     RECOGNIZES LOCOMOTIVES TWO OUT OF THREE TIMES,
       IS NOT ISSUED AMMUNITION,
         CAN STAY AFLOAT WITH A LIFE JACKET,
           TALKS TO WALLS.

 UNDERGRADUATE AND WORK STUDY STUDENT:
   FALLS OVER DOORSTEP WHEN TRYING TO ENTER BUILDINGS,
     SAYS, "LOOK AT THE CHOO-CHOO,"
       WETS HIMSELF WITH A WATER PISTOL,
        PLAYS IN MUD PUDDLES,
          MUMBLES TO HIMSELF.

 DEPARTMENT SECRETARY:
   LIFTS TALL BUILDINGS AND WALKS UNDER THEM,
     KICKS LOCOMOTIVES OFF THE TRACKS,
       CATCHES SPEEDING BULLETS IN HER TEETH AND EATS THEM,
         FREEZES WATER WITH A SINGLE GLANCE,
           IS GOD.
 Job cpu time:  0 days  0 hours 22 minutes 43.3 seconds.
 File lengths (MBytes):  RWF=     83 Int=      0 D2E=      0 Chk=      5 Scr=      1
 Normal termination of Gaussian 09 at Fri Apr 12 12:44:39 2019.
