 Entering Gaussian System, Link 0=g09
 Input=/home/mmarcarino.iquir/NMR/08_SRR_Levo04_OPTB_nmr.gjc
 Output=/home/mmarcarino.iquir/NMR/08_SRR_Levo04_OPTB_nmr.log
 Initial command:
 /share/apps/Gaussian09/EM64T.SSE4.2-enabled/g09/l1.exe /tmp/Gau-7294.inp -scrdir=/tmp/
 Entering Link 1 = /share/apps/Gaussian09/EM64T.SSE4.2-enabled/g09/l1.exe PID=      7295.
  
 Copyright (c) 1988,1990,1992,1993,1995,1998,2003,2009,2011,
            Gaussian, Inc.  All Rights Reserved.
  
 This is part of the Gaussian(R) 09 program.  It is based on
 the Gaussian(R) 03 system (copyright 2003, Gaussian, Inc.),
 the Gaussian(R) 98 system (copyright 1998, Gaussian, Inc.),
 the Gaussian(R) 94 system (copyright 1995, Gaussian, Inc.),
 the Gaussian 92(TM) system (copyright 1992, Gaussian, Inc.),
 the Gaussian 90(TM) system (copyright 1990, Gaussian, Inc.),
 the Gaussian 88(TM) system (copyright 1988, Gaussian, Inc.),
 the Gaussian 86(TM) system (copyright 1986, Carnegie Mellon
 University), and the Gaussian 82(TM) system (copyright 1983,
 Carnegie Mellon University). Gaussian is a federally registered
 trademark of Gaussian, Inc.
  
 This software contains proprietary and confidential information,
 including trade secrets, belonging to Gaussian, Inc.
  
 This software is provided under written license and may be
 used, copied, transmitted, or stored only in accord with that
 written license.
  
 The following legend is applicable only to US Government
 contracts under FAR:
  
                    RESTRICTED RIGHTS LEGEND
  
 Use, reproduction and disclosure by the US Government is
 subject to restrictions as set forth in subparagraphs (a)
 and (c) of the Commercial Computer Software - Restricted
 Rights clause in FAR 52.227-19.
  
 Gaussian, Inc.
 340 Quinnipiac St., Bldg. 40, Wallingford CT 06492
  
  
 ---------------------------------------------------------------
 Warning -- This program may not be used in any manner that
 competes with the business of Gaussian, Inc. or will provide
 assistance to any competitor of Gaussian, Inc.  The licensee
 of this program is prohibited from giving any competitor of
 Gaussian, Inc. access to this program.  By using this program,
 the user acknowledges that Gaussian, Inc. is engaged in the
 business of creating and licensing software in the field of
 computational chemistry and represents and warrants to the
 licensee that it is not a competitor of Gaussian, Inc. and that
 it will not use this program in any manner prohibited above.
 ---------------------------------------------------------------
  

 Cite this work as:
 Gaussian 09, Revision C.01,
 M. J. Frisch, G. W. Trucks, H. B. Schlegel, G. E. Scuseria, 
 M. A. Robb, J. R. Cheeseman, G. Scalmani, V. Barone, B. Mennucci, 
 G. A. Petersson, H. Nakatsuji, M. Caricato, X. Li, H. P. Hratchian, 
 A. F. Izmaylov, J. Bloino, G. Zheng, J. L. Sonnenberg, M. Hada, 
 M. Ehara, K. Toyota, R. Fukuda, J. Hasegawa, M. Ishida, T. Nakajima, 
 Y. Honda, O. Kitao, H. Nakai, T. Vreven, J. A. Montgomery, Jr., 
 J. E. Peralta, F. Ogliaro, M. Bearpark, J. J. Heyd, E. Brothers, 
 K. N. Kudin, V. N. Staroverov, T. Keith, R. Kobayashi, J. Normand, 
 K. Raghavachari, A. Rendell, J. C. Burant, S. S. Iyengar, J. Tomasi, 
 M. Cossi, N. Rega, J. M. Millam, M. Klene, J. E. Knox, J. B. Cross, 
 V. Bakken, C. Adamo, J. Jaramillo, R. Gomperts, R. E. Stratmann, 
 O. Yazyev, A. J. Austin, R. Cammi, C. Pomelli, J. W. Ochterski, 
 R. L. Martin, K. Morokuma, V. G. Zakrzewski, G. A. Voth, 
 P. Salvador, J. J. Dannenberg, S. Dapprich, A. D. Daniels, 
 O. Farkas, J. B. Foresman, J. V. Ortiz, J. Cioslowski, 
 and D. J. Fox, Gaussian, Inc., Wallingford CT, 2010.
 
 ******************************************
 Gaussian 09:  EM64L-G09RevC.01 23-Sep-2011
                12-Apr-2019 
 ******************************************
 %nprocshared=4
 Will use up to    4 processors via shared memory.
 ------------------------------------------------
 # mpw1pw91/6-31+g** nmr scrf=(pcm,solvent=water)
 ------------------------------------------------
 1/38=1/1;
 2/12=2,17=6,18=5,40=1/2;
 3/5=1,6=6,7=111,11=2,16=1,25=1,30=1,70=2201,72=1,74=-7/1,2,8,3;
 4//1;
 5/5=2,38=5,53=1/2;
 8/6=1,10=90,11=11/1;
 10/13=100,45=16/2;
 6/7=2,8=2,9=2,10=2,28=1/1;
 99/9=1/99;
 -------
 comment
 -------
 Charge =  0 Multiplicity = 1
 Symbolic Z-Matrix:
 6                     1.74696  -0.6736   -1.0409 
 6                     0.77645  -1.41512  -0.11116 
 6                     1.10367   0.60209   0.77164 
 6                    -1.025     0.31685  -0.56844 
 6                    -0.30375   1.16208   0.51172 
 6                    -0.70363  -1.1933   -0.43388 
 8                     1.02942  -0.76051   1.15339 
 8                     1.85794   0.63491  -0.44328 
 8                    -1.51619  -1.76201   0.59904 
 8                    -2.43031   0.50991  -0.54996 
 8                    -0.23152   2.53629   0.15506 
 1                     1.38145  -0.58437  -2.06852 
 1                     2.73312  -1.14782  -1.0485 
 1                     1.00182  -2.4759    0.00936 
 1                     1.63671   1.16622   1.54074 
 1                    -0.67595   0.66749  -1.54681 
 1                    -0.87328   1.12263   1.44643 
 1                    -0.98623  -1.709    -1.35686 
 1                    -1.07608  -1.54937   1.44253 
 1                    -2.75781  -0.14096   0.09995 
 1                     0.3733    2.58825  -0.60615 
 
                          Input orientation:                          
 ---------------------------------------------------------------------
 Center     Atomic      Atomic             Coordinates (Angstroms)
 Number     Number       Type             X           Y           Z
 ---------------------------------------------------------------------
      1          6           0        1.746955   -0.673597   -1.040899
      2          6           0        0.776452   -1.415123   -0.111163
      3          6           0        1.103673    0.602094    0.771641
      4          6           0       -1.024995    0.316854   -0.568436
      5          6           0       -0.303746    1.162078    0.511718
      6          6           0       -0.703626   -1.193300   -0.433884
      7          8           0        1.029420   -0.760511    1.153388
      8          8           0        1.857943    0.634912   -0.443281
      9          8           0       -1.516194   -1.762008    0.599040
     10          8           0       -2.430312    0.509913   -0.549957
     11          8           0       -0.231522    2.536295    0.155055
     12          1           0        1.381447   -0.584373   -2.068516
     13          1           0        2.733120   -1.147818   -1.048496
     14          1           0        1.001819   -2.475901    0.009357
     15          1           0        1.636709    1.166216    1.540740
     16          1           0       -0.675952    0.667492   -1.546805
     17          1           0       -0.873279    1.122629    1.446427
     18          1           0       -0.986226   -1.709002   -1.356859
     19          1           0       -1.076080   -1.549370    1.442530
     20          1           0       -2.757813   -0.140961    0.099946
     21          1           0        0.373295    2.588249   -0.606150
 ---------------------------------------------------------------------
                    Distance matrix (angstroms):
                    1          2          3          4          5
     1  C    0.000000
     2  C    1.534974   0.000000
     3  C    2.307921   2.226113   0.000000
     4  C    2.981262   2.540483   2.531481   0.000000
     5  C    3.160015   2.863001   1.536870   1.549625   0.000000
     6  C    2.577577   1.531008   2.818343   1.549822   2.569411
     7  O    2.310261   1.446236   1.417017   2.888947   2.425989
     8  O    1.442796   2.341489   1.430397   2.903129   2.421327
     9  O    3.810798   2.425066   3.533054   2.434326   3.166691
    10  O    4.369357   3.765852   3.774145   1.418636   2.464702
    11  O    3.955766   4.086635   2.429827   2.465554   1.421583
    12  H    1.094328   2.210745   3.090527   2.975469   3.542256
    13  H    1.094287   2.186000   3.005027   4.061915   4.122189
    14  H    2.215077   1.091130   3.172618   3.498757   3.897661
    15  H    3.172054   3.183102   1.092646   3.500672   2.196422
    16  H    2.815127   2.916819   2.923446   1.096350   2.149574
    17  H    4.034705   3.404098   2.152820   2.175308   1.095265
    18  H    2.939757   2.178338   3.773507   2.174214   3.492916
    19  H    3.860560   2.421541   3.135317   2.743973   2.968983
    20  H    4.677410   3.762856   3.989283   1.912848   2.808899
    21  H    3.565892   4.053953   2.525187   2.667559   1.934419
                    6          7          8          9         10
     6  C    0.000000
     7  O    2.389600   0.000000
     8  O    3.147075   2.276622   0.000000
     9  O    1.432001   2.791138   4.268074   0.000000
    10  O    2.428138   4.060186   4.291403   2.705075   0.000000
    11  O    3.805208   3.668184   2.887755   4.508094   3.072124
    12  H    2.718519   3.245861   2.086886   4.110840   4.246527
    13  H    3.491567   2.810853   2.076137   4.598725   5.445883
    14  H    2.179466   2.062070   3.258065   2.682864   4.583387
    15  H    3.865698   2.056968   2.065809   4.404781   4.619784
    16  H    2.168388   3.498361   2.763956   3.348601   2.023936
    17  H    2.987956   2.693019   3.356849   3.074498   2.604865
    18  H    1.094392   3.356159   3.797085   2.027120   2.767681
    19  H    1.945877   2.266943   4.115320   0.974880   3.169321
    20  H    2.368982   3.979537   4.711929   2.102024   0.976354
    21  H    3.935676   3.839358   2.458909   4.893607   3.490394
                   11         12         13         14         15
    11  O    0.000000
    12  H    4.157464   0.000000
    13  H    4.879583   1.784637   0.000000
    14  H    5.163765   2.835410   2.424925   0.000000
    15  H    2.699542   4.019509   3.641567   4.001654   0.000000
    16  H    2.566373   2.464191   3.894282   3.888120   3.889738
    17  H    2.019392   4.511371   4.938186   4.304716   2.512137
    18  H    4.569246   2.716086   3.774063   2.531206   4.852087
    19  H    4.366180   4.392961   4.569076   2.688886   3.839697
    20  H    3.681424   4.693859   5.699388   4.426622   4.805874
    21  H    0.973620   3.635989   4.441018   5.139991   2.868367
                   16         17         18         19         20
    16  H    0.000000
    17  H    3.034061   0.000000
    18  H    2.404178   3.986139   0.000000
    19  H    3.743087   2.679687   2.805376   0.000000
    20  H    2.774803   2.638397   2.778409   2.571842   0.000000
    21  H    2.382238   2.813372   4.569270   4.839181   4.213193
                   21
    21  H    0.000000
 Stoichiometry    C6H10O5
 Framework group  C1[X(C6H10O5)]
 Deg. of freedom    57
 Full point group                 C1      NOp   1
 Largest Abelian subgroup         C1      NOp   1
 Largest concise Abelian subgroup C1      NOp   1
                         Standard orientation:                         
 ---------------------------------------------------------------------
 Center     Atomic      Atomic             Coordinates (Angstroms)
 Number     Number       Type             X           Y           Z
 ---------------------------------------------------------------------
      1          6           0        1.746955   -0.673597   -1.040899
      2          6           0        0.776452   -1.415123   -0.111163
      3          6           0        1.103673    0.602094    0.771641
      4          6           0       -1.024995    0.316854   -0.568436
      5          6           0       -0.303746    1.162078    0.511718
      6          6           0       -0.703626   -1.193300   -0.433884
      7          8           0        1.029420   -0.760511    1.153388
      8          8           0        1.857943    0.634912   -0.443281
      9          8           0       -1.516194   -1.762008    0.599040
     10          8           0       -2.430312    0.509913   -0.549957
     11          8           0       -0.231522    2.536295    0.155055
     12          1           0        1.381447   -0.584373   -2.068516
     13          1           0        2.733120   -1.147818   -1.048496
     14          1           0        1.001819   -2.475901    0.009357
     15          1           0        1.636709    1.166216    1.540740
     16          1           0       -0.675952    0.667492   -1.546805
     17          1           0       -0.873279    1.122629    1.446427
     18          1           0       -0.986226   -1.709002   -1.356859
     19          1           0       -1.076080   -1.549370    1.442530
     20          1           0       -2.757813   -0.140961    0.099946
     21          1           0        0.373295    2.588249   -0.606150
 ---------------------------------------------------------------------
 Rotational constants (GHZ):      1.4637209      1.3015065      0.8856219
 Standard basis: 6-31+G(d,p) (6D, 7F)
 There are   259 symmetry adapted basis functions of A   symmetry.
 Integral buffers will be    131072 words long.
 Raffenetti 2 integral format.
 Two-electron integral symmetry is turned on.
   259 basis functions,   422 primitive gaussians,   259 cartesian basis functions
    43 alpha electrons       43 beta electrons
       nuclear repulsion energy       727.8925457505 Hartrees.
 NAtoms=   21 NActive=   21 NUniq=   21 SFac= 1.00D+00 NAtFMM=   60 NAOKFM=F Big=F
 ------------------------------------------------------------------------------
 Polarizable Continuum Model (PCM)
 =================================
 Model                : PCM.
 Atomic radii         : UFF (Universal Force Field).
 Polarization charges : Total charges.
 Charge compensation  : None.
 Solution method      : Matrix inversion.
 Cavity type          : Scaled VdW (van der Waals Surface) (Alpha=1.100).
 Cavity algorithm     : GePol (No added spheres)
                        Default sphere list used, NSphG=   21.
                        Lebedev-Laikov grids with approx.  5.0 points / Ang**2.
                        Smoothing algorithm: Karplus/York (Gamma=1.0000).
                        Polarization charges: spherical gaussians, with
                                              point-specific exponents (IZeta= 3).
                        Self-potential: point-specific (ISelfS= 7).
                        Self-field    : sphere-specific E.n sum rule (ISelfD= 2).
 Solvent              : Water, Eps=  78.355300 Eps(inf)=   1.777849
 ------------------------------------------------------------------------------
 One-electron integrals computed using PRISM.
 NBasis=   259 RedAO= T  NBF=   259
 NBsUse=   259 1.00D-06 NBFU=   259
 Harris functional with IExCor=  908 diagonalized for initial guess.
 ExpMin= 4.38D-02 ExpMax= 5.48D+03 ExpMxC= 8.25D+02 IAcc=2 IRadAn=         4 AccDes= 0.00D+00
 HarFok:  IExCor=  908 AccDes= 0.00D+00 IRadAn=         4 IDoV= 1
 ScaDFX=  1.000000  1.000000  1.000000  1.000000
 FoFCou: FMM=F IPFlag=           0 FMFlag=      100000 FMFlg1=           0
         NFxFlg=           0 DoJE=T BraDBF=F KetDBF=T FulRan=T
         Omega=  0.000000  0.000000  1.000000  0.000000  0.000000 ICntrl=     500 IOpCl=  0
         NMat0=    1 NMatS0=    1 NMatT0=    0 NMatD0=    1 NMtDS0=    0 NMtDT0=    0
         I1Cent=           4 NGrid=           0.
 Petite list used in FoFCou.
 Initial guess orbital symmetries:
       Occupied  (A) (A) (A) (A) (A) (A) (A) (A) (A) (A) (A) (A)
                 (A) (A) (A) (A) (A) (A) (A) (A) (A) (A) (A) (A)
                 (A) (A) (A) (A) (A) (A) (A) (A) (A) (A) (A) (A)
                 (A) (A) (A) (A) (A) (A) (A)
       Virtual   (A) (A) (A) (A) (A) (A) (A) (A) (A) (A) (A) (A)
                 (A) (A) (A) (A) (A) (A) (A) (A) (A) (A) (A) (A)
                 (A) (A) (A) (A) (A) (A) (A) (A) (A) (A) (A) (A)
                 (A) (A) (A) (A) (A) (A) (A) (A) (A) (A) (A) (A)
                 (A) (A) (A) (A) (A) (A) (A) (A) (A) (A) (A) (A)
                 (A) (A) (A) (A) (A) (A) (A) (A) (A) (A) (A) (A)
                 (A) (A) (A) (A) (A) (A) (A) (A) (A) (A) (A) (A)
                 (A) (A) (A) (A) (A) (A) (A) (A) (A) (A) (A) (A)
                 (A) (A) (A) (A) (A) (A) (A) (A) (A) (A) (A) (A)
                 (A) (A) (A) (A) (A) (A) (A) (A) (A) (A) (A) (A)
                 (A) (A) (A) (A) (A) (A) (A) (A) (A) (A) (A) (A)
                 (A) (A) (A) (A) (A) (A) (A) (A) (A) (A) (A) (A)
                 (A) (A) (A) (A) (A) (A) (A) (A) (A) (A) (A) (A)
                 (A) (A) (A) (A) (A) (A) (A) (A) (A) (A) (A) (A)
                 (A) (A) (A) (A) (A) (A) (A) (A) (A) (A) (A) (A)
                 (A) (A) (A) (A) (A) (A) (A) (A) (A) (A) (A) (A)
                 (A) (A) (A) (A) (A) (A) (A) (A) (A) (A) (A) (A)
                 (A) (A) (A) (A) (A) (A) (A) (A) (A) (A) (A) (A)
 The electronic state of the initial guess is 1-A.
 Requested convergence on RMS density matrix=1.00D-08 within 128 cycles.
 Requested convergence on MAX density matrix=1.00D-06.
 Requested convergence on             energy=1.00D-06.
 No special actions if energy rises.
 Error on total polarization charges =  0.01160
 SCF Done:  E(RmPW1PW91) =  -610.653388396     A.U. after   12 cycles
             Convg  =    0.6242D-08             -V/T =  2.0090
 Range of M.O.s used for correlation:     1   259
 NBasis=   259 NAE=    43 NBE=    43 NFC=     0 NFV=     0
 NROrb=    259 NOA=    43 NOB=    43 NVA=   216 NVB=   216

 **** Warning!!: The largest alpha MO coefficient is  0.52780538D+02

 NEqPCM:  Using equilibrium solvation (IEInf=0, Eps=  78.3553, EpsInf=   1.7778)
          Differentiating once with respect to magnetic field using GIAOs.
          Electric field/nuclear overlap derivatives assumed to be zero.
 FoFCou: FMM=F IPFlag=           0 FMFlag=    10101102 FMFlg1=           0
         NFxFlg=    40000000 DoJE=F BraDBF=F KetDBF=T FulRan=T
         Omega=  0.000000  0.000000  1.000000  0.000000  0.000000 ICntrl=    6100 IOpCl=  0
         NMat0=    1 NMatS0=    1 NMatT0=    0 NMatD0=    1 NMtDS0=    0 NMtDT0=    0
         I1Cent=           7 NGrid=        1523.
 Symmetry not used in FoFCou.
          There are     3 degrees of freedom in the 1st order CPHF.  IDoFFX=0.
      3 vectors produced by pass  0 Test12= 3.10D-13 3.33D-08 XBig12= 1.91D+01 7.94D-01.
 AX will form     3 AO Fock derivatives at one time.
      3 vectors produced by pass  1 Test12= 3.10D-13 3.33D-08 XBig12= 4.41D-02 2.42D-02.
      3 vectors produced by pass  2 Test12= 3.10D-13 3.33D-08 XBig12= 8.94D-05 1.39D-03.
      3 vectors produced by pass  3 Test12= 3.10D-13 3.33D-08 XBig12= 3.63D-07 8.77D-05.
      3 vectors produced by pass  4 Test12= 3.10D-13 3.33D-08 XBig12= 1.29D-09 6.00D-06.
      3 vectors produced by pass  5 Test12= 3.10D-13 3.33D-08 XBig12= 4.31D-12 3.83D-07.
 Inverted reduced A of dimension    18 with in-core refinement.
 Calculating GIAO nuclear magnetic shielding tensors.
 SCF GIAO Magnetic shielding tensor (ppm):
      1  C    Isotropic =   129.6738   Anisotropy =    63.8679
   XX=   108.3339   YX=     7.6967   ZX=    -8.6992
   XY=     8.9992   YY=   161.5976   ZY=    20.5995
   XZ=    -1.7229   YZ=    25.6797   ZZ=   119.0898
   Eigenvalues:   100.2694   116.4996   172.2524
      2  C    Isotropic =   117.0640   Anisotropy =    49.6853
   XX=   108.2303   YX=    14.8920   ZX=    -3.3755
   XY=     9.5885   YY=   104.6866   ZY=    15.4225
   XZ=     9.3341   YZ=    27.1391   ZZ=   138.2750
   Eigenvalues:    89.1326   111.8718   150.1875
      3  C    Isotropic =    93.1322   Anisotropy =    26.5371
   XX=    82.0523   YX=   -10.0213   ZX=   -22.0844
   XY=     3.8360   YY=   106.3486   ZY=    -9.8292
   XZ=   -14.8721   YZ=    -5.6283   ZZ=    90.9957
   Eigenvalues:    66.2032   102.3698   110.8236
      4  C    Isotropic =   122.4069   Anisotropy =    30.1231
   XX=   141.8854   YX=     6.1475   ZX=     5.3197
   XY=     1.1190   YY=   114.5260   ZY=     6.1919
   XZ=    -2.8087   YZ=     5.3097   ZZ=   110.8094
   Eigenvalues:   106.5872   118.1446   142.4890
      5  C    Isotropic =   119.0547   Anisotropy =    21.6526
   XX=   116.5441   YX=    -1.7175   ZX=     6.1163
   XY=     5.4648   YY=   131.1803   ZY=    -0.2045
   XZ=     3.8831   YZ=   -14.6791   ZZ=   109.4395
   Eigenvalues:   104.7306   118.9436   133.4897
      6  C    Isotropic =   123.2898   Anisotropy =    37.9900
   XX=   126.7693   YX=     9.1363   ZX=   -22.2037
   XY=    -1.9351   YY=   115.7526   ZY=    -8.5902
   XZ=   -12.3378   YZ=   -17.0713   ZZ=   127.3474
   Eigenvalues:   104.5042   116.7487   148.6164
      7  O    Isotropic =   242.9194   Anisotropy =    66.0354
   XX=   196.3810   YX=   -18.7956   ZX=   -36.3635
   XY=     5.7615   YY=   286.4714   ZY=    -9.8391
   XZ=   -45.6883   YZ=     4.4185   ZZ=   245.9057
   Eigenvalues:   172.7916   269.0235   286.9430
      8  O    Isotropic =   274.8723   Anisotropy =    98.7530
   XX=   221.8042   YX=    29.9663   ZX=   -59.8655
   XY=    21.4770   YY=   305.8961   ZY=     8.2750
   XZ=   -64.6993   YZ=   -17.4734   ZZ=   296.9164
   Eigenvalues:   183.2736   300.6356   340.7076
      9  O    Isotropic =   304.6749   Anisotropy =    44.0722
   XX=   292.9221   YX=     5.2581   ZX=    27.8753
   XY=    20.4200   YY=   293.9280   ZY=    -2.8492
   XZ=     5.7651   YZ=    -6.9026   ZZ=   327.1745
   Eigenvalues:   275.7009   304.2673   334.0563
     10  O    Isotropic =   302.2303   Anisotropy =    33.7859
   XX=   315.3425   YX=     6.2515   ZX=     5.4256
   XY=    21.5374   YY=   293.1381   ZY=    -1.7645
   XZ=    17.2328   YZ=    -7.7434   ZZ=   298.2102
   Eigenvalues:   281.0240   300.9126   324.7542
     11  O    Isotropic =   295.9057   Anisotropy =    37.4262
   XX=   278.4669   YX=    20.6178   ZX=   -17.8610
   XY=    10.3303   YY=   307.1783   ZY=    -0.3351
   XZ=   -21.3092   YZ=    -3.0492   ZZ=   302.0720
   Eigenvalues:   263.5914   303.2693   320.8565
     12  H    Isotropic =    27.7347   Anisotropy =     7.4185
   XX=    25.6004   YX=    -0.3402   ZX=    -0.1083
   XY=     0.4899   YY=    25.6247   ZY=     2.8978
   XZ=    -1.6008   YZ=     1.2287   ZZ=    31.9791
   Eigenvalues:    24.8626    25.6611    32.6804
     13  H    Isotropic =    27.5940   Anisotropy =    11.4209
   XX=    30.7171   YX=    -3.2967   ZX=    -3.3581
   XY=    -4.8776   YY=    28.5822   ZY=     2.5015
   XZ=    -2.8977   YZ=     2.3394   ZZ=    23.4828
   Eigenvalues:    22.1487    25.4254    35.2080
     14  H    Isotropic =    26.9004   Anisotropy =     8.5133
   XX=    25.2347   YX=    -2.3588   ZX=     0.0092
   XY=    -1.6550   YY=    31.8062   ZY=     0.4226
   XZ=    -0.3119   YZ=     2.3023   ZZ=    23.6604
   Eigenvalues:    23.4164    24.7090    32.5760
     15  H    Isotropic =    26.2342   Anisotropy =     7.6975
   XX=    24.6311   YX=     1.6363   ZX=     1.9197
   XY=     1.5155   YY=    25.7869   ZY=     2.9608
   XZ=     2.5841   YZ=     2.9512   ZZ=    28.2845
   Eigenvalues:    23.4977    23.8390    31.3658
     16  H    Isotropic =    28.2012   Anisotropy =     2.9735
   XX=    30.1309   YX=     0.1379   ZX=    -0.6088
   XY=    -0.8894   YY=    25.2063   ZY=    -0.7618
   XZ=     0.1696   YZ=    -2.4317   ZZ=    29.2665
   Eigenvalues:    24.6205    29.7996    30.1835
     17  H    Isotropic =    28.3192   Anisotropy =     3.2199
   XX=    26.1234   YX=     0.0912   ZX=    -1.6380
   XY=    -0.3655   YY=    29.5812   ZY=     0.0692
   XZ=    -2.2118   YZ=     0.9344   ZZ=    29.2530
   Eigenvalues:    25.2056    29.2862    30.4658
     18  H    Isotropic =    27.8171   Anisotropy =     7.2071
   XX=    25.1625   YX=     1.2222   ZX=    -0.6845
   XY=     2.1382   YY=    27.0529   ZY=     2.2582
   XZ=     0.8493   YZ=     3.0671   ZZ=    31.2359
   Eigenvalues:    23.9097    26.9197    32.6218
     19  H    Isotropic =    29.5748   Anisotropy =    15.2124
   XX=    28.0932   YX=     4.4832   ZX=     3.6038
   XY=     3.3320   YY=    22.2740   ZY=     0.9282
   XZ=     3.8828   YZ=    -0.2970   ZZ=    38.3572
   Eigenvalues:    20.1963    28.8117    39.7164
     20  H    Isotropic =    28.5747   Anisotropy =    15.6550
   XX=    30.0017   YX=     2.1382   ZX=    -4.5122
   XY=     1.0085   YY=    29.8183   ZY=    -9.0151
   XZ=    -5.4492   YZ=    -8.4639   ZZ=    25.9040
   Eigenvalues:    18.1288    28.5839    39.0113
     21  H    Isotropic =    29.9899   Anisotropy =    14.9076
   XX=    28.6905   YX=     0.3426   ZX=    -8.1608
   XY=     0.7687   YY=    29.3949   ZY=    -3.8984
   XZ=    -8.4786   YZ=    -4.1783   ZZ=    31.8842
   Eigenvalues:    21.2034    28.8379    39.9283
 End of Minotr Frequency-dependent properties file   721 does not exist.
 End of Minotr Frequency-dependent properties file   722 does not exist.

 **********************************************************************

            Population analysis using the SCF density.

 **********************************************************************

 Orbital symmetries:
       Occupied  (A) (A) (A) (A) (A) (A) (A) (A) (A) (A) (A) (A)
                 (A) (A) (A) (A) (A) (A) (A) (A) (A) (A) (A) (A)
                 (A) (A) (A) (A) (A) (A) (A) (A) (A) (A) (A) (A)
                 (A) (A) (A) (A) (A) (A) (A)
       Virtual   (A) (A) (A) (A) (A) (A) (A) (A) (A) (A) (A) (A)
                 (A) (A) (A) (A) (A) (A) (A) (A) (A) (A) (A) (A)
                 (A) (A) (A) (A) (A) (A) (A) (A) (A) (A) (A) (A)
                 (A) (A) (A) (A) (A) (A) (A) (A) (A) (A) (A) (A)
                 (A) (A) (A) (A) (A) (A) (A) (A) (A) (A) (A) (A)
                 (A) (A) (A) (A) (A) (A) (A) (A) (A) (A) (A) (A)
                 (A) (A) (A) (A) (A) (A) (A) (A) (A) (A) (A) (A)
                 (A) (A) (A) (A) (A) (A) (A) (A) (A) (A) (A) (A)
                 (A) (A) (A) (A) (A) (A) (A) (A) (A) (A) (A) (A)
                 (A) (A) (A) (A) (A) (A) (A) (A) (A) (A) (A) (A)
                 (A) (A) (A) (A) (A) (A) (A) (A) (A) (A) (A) (A)
                 (A) (A) (A) (A) (A) (A) (A) (A) (A) (A) (A) (A)
                 (A) (A) (A) (A) (A) (A) (A) (A) (A) (A) (A) (A)
                 (A) (A) (A) (A) (A) (A) (A) (A) (A) (A) (A) (A)
                 (A) (A) (A) (A) (A) (A) (A) (A) (A) (A) (A) (A)
                 (A) (A) (A) (A) (A) (A) (A) (A) (A) (A) (A) (A)
                 (A) (A) (A) (A) (A) (A) (A) (A) (A) (A) (A) (A)
                 (A) (A) (A) (A) (A) (A) (A) (A) (A) (A) (A) (A)
 The electronic state is 1-A.
 Alpha  occ. eigenvalues --  -19.28775 -19.27624 -19.27326 -19.26531 -19.25897
 Alpha  occ. eigenvalues --  -10.36314 -10.32569 -10.32056 -10.31425 -10.31403
 Alpha  occ. eigenvalues --  -10.31226  -1.15032  -1.08825  -1.07434  -1.05461
 Alpha  occ. eigenvalues --   -1.04526  -0.82997  -0.80768  -0.71180  -0.68446
 Alpha  occ. eigenvalues --   -0.65729  -0.62087  -0.58454  -0.55358  -0.53635
 Alpha  occ. eigenvalues --   -0.52339  -0.51465  -0.49451  -0.47861  -0.46742
 Alpha  occ. eigenvalues --   -0.45011  -0.43380  -0.42628  -0.40981  -0.39493
 Alpha  occ. eigenvalues --   -0.38084  -0.36805  -0.35600  -0.35162  -0.33358
 Alpha  occ. eigenvalues --   -0.30699  -0.29866  -0.27616
 Alpha virt. eigenvalues --    0.00811   0.01575   0.01937   0.02179   0.04062
 Alpha virt. eigenvalues --    0.04709   0.05213   0.05492   0.05917   0.07588
 Alpha virt. eigenvalues --    0.08521   0.09520   0.10288   0.10419   0.11057
 Alpha virt. eigenvalues --    0.11950   0.12371   0.13432   0.13743   0.14227
 Alpha virt. eigenvalues --    0.15102   0.15449   0.15920   0.16434   0.17044
 Alpha virt. eigenvalues --    0.17429   0.19008   0.19223   0.20292   0.20418
 Alpha virt. eigenvalues --    0.21684   0.21771   0.22558   0.22889   0.23647
 Alpha virt. eigenvalues --    0.24086   0.24937   0.25359   0.25976   0.26936
 Alpha virt. eigenvalues --    0.28241   0.28792   0.29228   0.29879   0.30732
 Alpha virt. eigenvalues --    0.31229   0.32250   0.32686   0.33268   0.33960
 Alpha virt. eigenvalues --    0.34593   0.34982   0.35355   0.35980   0.36648
 Alpha virt. eigenvalues --    0.37714   0.37872   0.38608   0.39136   0.39753
 Alpha virt. eigenvalues --    0.41161   0.43017   0.43463   0.45148   0.46056
 Alpha virt. eigenvalues --    0.48049   0.64556   0.65971   0.66782   0.67525
 Alpha virt. eigenvalues --    0.69857   0.72162   0.75863   0.76116   0.77566
 Alpha virt. eigenvalues --    0.80276   0.81699   0.84555   0.85088   0.86847
 Alpha virt. eigenvalues --    0.87718   0.89313   0.95109   0.96635   0.98283
 Alpha virt. eigenvalues --    1.01824   1.03899   1.04433   1.05280   1.07769
 Alpha virt. eigenvalues --    1.08442   1.10243   1.11504   1.13034   1.14038
 Alpha virt. eigenvalues --    1.18449   1.20590   1.22554   1.25703   1.26356
 Alpha virt. eigenvalues --    1.28435   1.30010   1.30815   1.31798   1.34850
 Alpha virt. eigenvalues --    1.35167   1.36422   1.38817   1.40080   1.40662
 Alpha virt. eigenvalues --    1.43117   1.43509   1.45222   1.45967   1.51168
 Alpha virt. eigenvalues --    1.52094   1.53931   1.55623   1.57894   1.60015
 Alpha virt. eigenvalues --    1.60914   1.63097   1.65591   1.66533   1.68047
 Alpha virt. eigenvalues --    1.70836   1.73199   1.74906   1.75930   1.78237
 Alpha virt. eigenvalues --    1.81527   1.82289   1.84177   1.86169   1.87923
 Alpha virt. eigenvalues --    1.88815   1.91771   1.92962   1.97872   1.99108
 Alpha virt. eigenvalues --    2.00899   2.03332   2.04822   2.07811   2.08768
 Alpha virt. eigenvalues --    2.10865   2.12268   2.15165   2.16427   2.17467
 Alpha virt. eigenvalues --    2.20163   2.21467   2.22148   2.23488   2.27966
 Alpha virt. eigenvalues --    2.30137   2.35808   2.38693   2.40642   2.44150
 Alpha virt. eigenvalues --    2.44495   2.47304   2.49001   2.51707   2.52172
 Alpha virt. eigenvalues --    2.55485   2.56388   2.57503   2.60209   2.63434
 Alpha virt. eigenvalues --    2.64187   2.66376   2.66788   2.69861   2.70591
 Alpha virt. eigenvalues --    2.72576   2.74105   2.75443   2.78828   2.80773
 Alpha virt. eigenvalues --    2.82391   2.85615   2.87593   2.87926   2.90264
 Alpha virt. eigenvalues --    2.95523   2.95937   2.97731   2.97980   3.02176
 Alpha virt. eigenvalues --    3.07278   3.09596   3.10467   3.12667   3.21378
 Alpha virt. eigenvalues --    3.34731   3.40945   3.42764   3.46181   3.50567
 Alpha virt. eigenvalues --    3.50964   3.52623   3.57325   3.58965   3.61038
 Alpha virt. eigenvalues --    4.28364   4.33671   4.41752   4.42455   4.49781
 Alpha virt. eigenvalues --    4.59758   4.62062   4.72515   4.84856   4.91788
 Alpha virt. eigenvalues --    4.93396
          Condensed to atoms (all electrons):
              1          2          3          4          5          6
     1  C    5.616070  -0.263563  -0.340193  -0.053298   0.108107   0.048688
     2  C   -0.263563   6.776552  -0.377332   0.120221   0.124248  -0.619021
     3  C   -0.340193  -0.377332   6.811079   0.341368  -1.254906   0.197294
     4  C   -0.053298   0.120221   0.341368   6.705882  -0.954521  -0.419517
     5  C    0.108107   0.124248  -1.254906  -0.954521   7.501822   0.005357
     6  C    0.048688  -0.619021   0.197294  -0.419517   0.005357   6.366031
     7  O   -0.019273   0.124626   0.242075  -0.058892  -0.046230  -0.108580
     8  O    0.170695  -0.110477   0.328103   0.064534  -0.231997  -0.024961
     9  O   -0.000511  -0.108410  -0.050154  -0.148296   0.069280   0.326874
    10  O   -0.001606   0.014203   0.048979   0.296835  -0.178405  -0.061272
    11  O    0.028165  -0.026113  -0.081783  -0.172086   0.308369   0.048524
    12  H    0.454359  -0.155959   0.012657  -0.048299   0.022090   0.074253
    13  H    0.389645   0.002250  -0.010434   0.009954  -0.001107  -0.005400
    14  H    0.014337   0.292921   0.011666   0.010219  -0.004358   0.022011
    15  H    0.014461   0.031255   0.340857   0.022643  -0.008776  -0.021558
    16  H   -0.000070  -0.017861  -0.010156   0.437135  -0.041778  -0.040943
    17  H    0.000044  -0.014405  -0.052315  -0.066950   0.423996   0.028154
    18  H    0.026902  -0.038455  -0.030817  -0.027865   0.055764   0.343160
    19  H    0.008832  -0.028070  -0.004084  -0.007360   0.020775  -0.006432
    20  H   -0.000243   0.014156  -0.001399   0.045980  -0.032737  -0.051429
    21  H    0.003218  -0.006007  -0.042920  -0.046797   0.064809   0.008229
              7          8          9         10         11         12
     1  C   -0.019273   0.170695  -0.000511  -0.001606   0.028165   0.454359
     2  C    0.124626  -0.110477  -0.108410   0.014203  -0.026113  -0.155959
     3  C    0.242075   0.328103  -0.050154   0.048979  -0.081783   0.012657
     4  C   -0.058892   0.064534  -0.148296   0.296835  -0.172086  -0.048299
     5  C   -0.046230  -0.231997   0.069280  -0.178405   0.308369   0.022090
     6  C   -0.108580  -0.024961   0.326874  -0.061272   0.048524   0.074253
     7  O    8.302975  -0.039643  -0.005758  -0.002903   0.009293   0.012040
     8  O   -0.039643   8.353350   0.000642  -0.000876  -0.006061  -0.048108
     9  O   -0.005758   0.000642   8.269779  -0.030313  -0.003766   0.000087
    10  O   -0.002903  -0.000876  -0.030313   8.257949   0.004476  -0.000065
    11  O    0.009293  -0.006061  -0.003766   0.004476   8.220991   0.000725
    12  H    0.012040  -0.048108   0.000087  -0.000065   0.000725   0.521450
    13  H   -0.005504  -0.047387  -0.000218   0.000000  -0.000242  -0.035515
    14  H   -0.037839   0.007110   0.000552  -0.000576   0.000060   0.001930
    15  H   -0.045074  -0.045297  -0.000194  -0.000524   0.000807  -0.000247
    16  H    0.000184   0.004330   0.010489  -0.056374  -0.011329   0.001338
    17  H    0.000156   0.011240   0.004055  -0.002138  -0.054675  -0.000021
    18  H    0.011016  -0.000744  -0.048881  -0.001437  -0.000522   0.000094
    19  H    0.028408  -0.000743   0.247379  -0.000893   0.000050  -0.000012
    20  H   -0.000745   0.000170   0.032178   0.246737  -0.000734  -0.000008
    21  H   -0.000205   0.021435   0.000190  -0.001079   0.245839  -0.000128
             13         14         15         16         17         18
     1  C    0.389645   0.014337   0.014461  -0.000070   0.000044   0.026902
     2  C    0.002250   0.292921   0.031255  -0.017861  -0.014405  -0.038455
     3  C   -0.010434   0.011666   0.340857  -0.010156  -0.052315  -0.030817
     4  C    0.009954   0.010219   0.022643   0.437135  -0.066950  -0.027865
     5  C   -0.001107  -0.004358  -0.008776  -0.041778   0.423996   0.055764
     6  C   -0.005400   0.022011  -0.021558  -0.040943   0.028154   0.343160
     7  O   -0.005504  -0.037839  -0.045074   0.000184   0.000156   0.011016
     8  O   -0.047387   0.007110  -0.045297   0.004330   0.011240  -0.000744
     9  O   -0.000218   0.000552  -0.000194   0.010489   0.004055  -0.048881
    10  O    0.000000  -0.000576  -0.000524  -0.056374  -0.002138  -0.001437
    11  O   -0.000242   0.000060   0.000807  -0.011329  -0.054675  -0.000522
    12  H   -0.035515   0.001930  -0.000247   0.001338  -0.000021   0.000094
    13  H    0.520407  -0.003083   0.000276   0.000034   0.000017  -0.000020
    14  H   -0.003083   0.484617   0.000001  -0.000106  -0.000019  -0.001960
    15  H    0.000276   0.000001   0.520921  -0.000263  -0.003177   0.000020
    16  H    0.000034  -0.000106  -0.000263   0.531609   0.003855  -0.004471
    17  H    0.000017  -0.000019  -0.003177   0.003855   0.527355  -0.000202
    18  H   -0.000020  -0.001960   0.000020  -0.004471  -0.000202   0.516618
    19  H   -0.000007  -0.000562   0.000089  -0.000269  -0.001293   0.005844
    20  H    0.000000  -0.000016  -0.000001   0.005933   0.001419  -0.000925
    21  H    0.000026   0.000000  -0.000583   0.004087   0.006715  -0.000011
             19         20         21
     1  C    0.008832  -0.000243   0.003218
     2  C   -0.028070   0.014156  -0.006007
     3  C   -0.004084  -0.001399  -0.042920
     4  C   -0.007360   0.045980  -0.046797
     5  C    0.020775  -0.032737   0.064809
     6  C   -0.006432  -0.051429   0.008229
     7  O    0.028408  -0.000745  -0.000205
     8  O   -0.000743   0.000170   0.021435
     9  O    0.247379   0.032178   0.000190
    10  O   -0.000893   0.246737  -0.001079
    11  O    0.000050  -0.000734   0.245839
    12  H   -0.000012  -0.000008  -0.000128
    13  H   -0.000007   0.000000   0.000026
    14  H   -0.000562  -0.000016   0.000000
    15  H    0.000089  -0.000001  -0.000583
    16  H   -0.000269   0.005933   0.004087
    17  H   -0.001293   0.001419   0.006715
    18  H    0.005844  -0.000925  -0.000011
    19  H    0.346920  -0.002479  -0.000005
    20  H   -0.002479   0.356897   0.000003
    21  H   -0.000005   0.000003   0.366738
 Mulliken atomic charges:
              1
     1  C   -0.204765
     2  C    0.265242
     3  C   -0.077585
     4  C   -0.050891
     5  C    0.050196
     6  C   -0.109461
     7  O   -0.360127
     8  O   -0.405317
     9  O   -0.565004
    10  O   -0.530719
    11  O   -0.509989
    12  H    0.187342
    13  H    0.186308
    14  H    0.203095
    15  H    0.194364
    16  H    0.184627
    17  H    0.188189
    18  H    0.196892
    19  H    0.393913
    20  H    0.387244
    21  H    0.376448
 Sum of Mulliken atomic charges =   0.00000
 Mulliken charges with hydrogens summed into heavy atoms:
              1
     1  C    0.168885
     2  C    0.468337
     3  C    0.116779
     4  C    0.133736
     5  C    0.238385
     6  C    0.087430
     7  O   -0.360127
     8  O   -0.405317
     9  O   -0.171091
    10  O   -0.143475
    11  O   -0.133542
 Sum of Mulliken charges with hydrogens summed into heavy atoms =   0.00000
 Electronic spatial extent (au):  <R**2>=           1428.6528
 Charge=              0.0000 electrons
 Dipole moment (field-independent basis, Debye):
    X=              3.0860    Y=             -3.4056    Z=             -0.8972  Tot=              4.6826
 Quadrupole moment (field-independent basis, Debye-Ang):
   XX=            -73.1693   YY=            -71.2163   ZZ=            -59.1265
   XY=              0.6716   XZ=             -5.5870   YZ=              2.2866
 Traceless Quadrupole moment (field-independent basis, Debye-Ang):
   XX=             -5.3319   YY=             -3.3789   ZZ=              8.7109
   XY=              0.6716   XZ=             -5.5870   YZ=              2.2866
 Octapole moment (field-independent basis, Debye-Ang**2):
  XXX=             10.3783  YYY=            -17.9273  ZZZ=              1.6995  XYY=             22.3410
  XXY=            -10.8523  XXZ=             10.0531  XZZ=             -0.6785  YZZ=              0.9565
  YYZ=            -11.1646  XYZ=              2.2427
 Hexadecapole moment (field-independent basis, Debye-Ang**3):
 XXXX=           -814.7777 YYYY=           -748.1984 ZZZZ=           -254.5876 XXXY=              2.5031
 XXXZ=            -33.4772 YYYX=              4.7578 YYYZ=            -29.5892 ZZZX=            -14.8074
 ZZZY=             -4.7080 XXYY=           -268.9892 XXZZ=           -176.8880 YYZZ=           -147.6420
 XXYZ=             21.2211 YYXZ=             -0.4675 ZZXY=             11.3137
 N-N= 7.278925457505D+02 E-N=-2.885057157922D+03  KE= 6.052069556768D+02
 1\1\GINC-COMPUTE-8-20\SP\RmPW1PW91\6-31+G(d,p)\C6H10O5\MMARCARINO.IQUI
 R\12-Apr-2019\0\\# mpw1pw91/6-31+g** nmr scrf=(pcm,solvent=water)\\com
 ment\\0,1\C,0,1.746955,-0.673597,-1.040899\C,0,0.776452,-1.415123,-0.1
 11163\C,0,1.103673,0.602094,0.771641\C,0,-1.024995,0.316854,-0.568436\
 C,0,-0.303746,1.162078,0.511718\C,0,-0.703626,-1.1933,-0.433884\O,0,1.
 02942,-0.760511,1.153388\O,0,1.857943,0.634912,-0.443281\O,0,-1.516194
 ,-1.762008,0.59904\O,0,-2.430312,0.509913,-0.549957\O,0,-0.231522,2.53
 6295,0.155055\H,0,1.381447,-0.584373,-2.068516\H,0,2.73312,-1.147818,-
 1.048496\H,0,1.001819,-2.475901,0.009357\H,0,1.636709,1.166216,1.54074
 \H,0,-0.675952,0.667492,-1.546805\H,0,-0.873279,1.122629,1.446427\H,0,
 -0.986226,-1.709002,-1.356859\H,0,-1.07608,-1.54937,1.44253\H,0,-2.757
 813,-0.140961,0.099946\H,0,0.373295,2.588249,-0.60615\\Version=EM64L-G
 09RevC.01\State=1-A\HF=-610.6533884\RMSD=6.242e-09\Dipole=1.2141102,-1
 .3398807,-0.3530052\Quadrupole=-3.9641588,-2.5121508,6.4763096,0.49932
 35,-4.1538178,1.7000324\PG=C01 [X(C6H10O5)]\\@


 SILVERMAN'S PARADOX - IF MURPHY'S LAW CAN GO WRONG, IT WILL.
 Job cpu time:  0 days  0 hours 21 minutes 13.2 seconds.
 File lengths (MBytes):  RWF=     82 Int=      0 D2E=      0 Chk=      5 Scr=      1
 Normal termination of Gaussian 09 at Fri Apr 12 12:31:58 2019.
