 Entering Gaussian System, Link 0=g09
 Input=/home/asarotti.iquir/SCF3/08_SRR_Levo04_OPTB_energy_b3lyp_smd.gjc
 Output=/home/asarotti.iquir/SCF3/08_SRR_Levo04_OPTB_energy_b3lyp_smd.log
 Initial command:
 /share/apps/Gaussian09/EM64T.SSE4.2-enabled/g09/l1.exe /tmp/Gau-35054.inp -scrdir=/tmp/
 Entering Link 1 = /share/apps/Gaussian09/EM64T.SSE4.2-enabled/g09/l1.exe PID=     35055.
  
 Copyright (c) 1988,1990,1992,1993,1995,1998,2003,2009,2011,
            Gaussian, Inc.  All Rights Reserved.
  
 This is part of the Gaussian(R) 09 program.  It is based on
 the Gaussian(R) 03 system (copyright 2003, Gaussian, Inc.),
 the Gaussian(R) 98 system (copyright 1998, Gaussian, Inc.),
 the Gaussian(R) 94 system (copyright 1995, Gaussian, Inc.),
 the Gaussian 92(TM) system (copyright 1992, Gaussian, Inc.),
 the Gaussian 90(TM) system (copyright 1990, Gaussian, Inc.),
 the Gaussian 88(TM) system (copyright 1988, Gaussian, Inc.),
 the Gaussian 86(TM) system (copyright 1986, Carnegie Mellon
 University), and the Gaussian 82(TM) system (copyright 1983,
 Carnegie Mellon University). Gaussian is a federally registered
 trademark of Gaussian, Inc.
  
 This software contains proprietary and confidential information,
 including trade secrets, belonging to Gaussian, Inc.
  
 This software is provided under written license and may be
 used, copied, transmitted, or stored only in accord with that
 written license.
  
 The following legend is applicable only to US Government
 contracts under FAR:
  
                    RESTRICTED RIGHTS LEGEND
  
 Use, reproduction and disclosure by the US Government is
 subject to restrictions as set forth in subparagraphs (a)
 and (c) of the Commercial Computer Software - Restricted
 Rights clause in FAR 52.227-19.
  
 Gaussian, Inc.
 340 Quinnipiac St., Bldg. 40, Wallingford CT 06492
  
  
 ---------------------------------------------------------------
 Warning -- This program may not be used in any manner that
 competes with the business of Gaussian, Inc. or will provide
 assistance to any competitor of Gaussian, Inc.  The licensee
 of this program is prohibited from giving any competitor of
 Gaussian, Inc. access to this program.  By using this program,
 the user acknowledges that Gaussian, Inc. is engaged in the
 business of creating and licensing software in the field of
 computational chemistry and represents and warrants to the
 licensee that it is not a competitor of Gaussian, Inc. and that
 it will not use this program in any manner prohibited above.
 ---------------------------------------------------------------
  

 Cite this work as:
 Gaussian 09, Revision C.01,
 M. J. Frisch, G. W. Trucks, H. B. Schlegel, G. E. Scuseria, 
 M. A. Robb, J. R. Cheeseman, G. Scalmani, V. Barone, B. Mennucci, 
 G. A. Petersson, H. Nakatsuji, M. Caricato, X. Li, H. P. Hratchian, 
 A. F. Izmaylov, J. Bloino, G. Zheng, J. L. Sonnenberg, M. Hada, 
 M. Ehara, K. Toyota, R. Fukuda, J. Hasegawa, M. Ishida, T. Nakajima, 
 Y. Honda, O. Kitao, H. Nakai, T. Vreven, J. A. Montgomery, Jr., 
 J. E. Peralta, F. Ogliaro, M. Bearpark, J. J. Heyd, E. Brothers, 
 K. N. Kudin, V. N. Staroverov, T. Keith, R. Kobayashi, J. Normand, 
 K. Raghavachari, A. Rendell, J. C. Burant, S. S. Iyengar, J. Tomasi, 
 M. Cossi, N. Rega, J. M. Millam, M. Klene, J. E. Knox, J. B. Cross, 
 V. Bakken, C. Adamo, J. Jaramillo, R. Gomperts, R. E. Stratmann, 
 O. Yazyev, A. J. Austin, R. Cammi, C. Pomelli, J. W. Ochterski, 
 R. L. Martin, K. Morokuma, V. G. Zakrzewski, G. A. Voth, 
 P. Salvador, J. J. Dannenberg, S. Dapprich, A. D. Daniels, 
 O. Farkas, J. B. Foresman, J. V. Ortiz, J. Cioslowski, 
 and D. J. Fox, Gaussian, Inc., Wallingford CT, 2010.
 
 ******************************************
 Gaussian 09:  EM64L-G09RevC.01 23-Sep-2011
                15-Apr-2019 
 ******************************************
 %nprocshared=4
 Will use up to    4 processors via shared memory.
 -----------------------------------------------------------
 # B3LYP/6-31+G** test scrf=(pcm,solvent=water,smd,dovacuum)
 -----------------------------------------------------------
 1/38=1/1;
 2/12=2,17=6,18=5,40=1/2;
 3/5=1,6=6,7=111,11=2,16=1,25=1,30=1,70=32101,72=1,74=-5/1,2,3;
 4//1;
 5/5=2,38=5,53=1/2;
 6/7=2,8=2,9=2,10=2,28=1/1;
 99/5=1,9=1/99;
 -------
 comment
 -------
 Charge =  0 Multiplicity = 1
 Symbolic Z-Matrix:
 6                     1.74696  -0.6736   -1.0409 
 6                     0.77645  -1.41512  -0.11116 
 6                     1.10367   0.60209   0.77164 
 6                    -1.025     0.31685  -0.56844 
 6                    -0.30375   1.16208   0.51172 
 6                    -0.70363  -1.1933   -0.43388 
 8                     1.02942  -0.76051   1.15339 
 8                     1.85794   0.63491  -0.44328 
 8                    -1.51619  -1.76201   0.59904 
 8                    -2.43031   0.50991  -0.54996 
 8                    -0.23152   2.53629   0.15506 
 1                     1.38145  -0.58437  -2.06852 
 1                     2.73312  -1.14782  -1.0485 
 1                     1.00182  -2.4759    0.00936 
 1                     1.63671   1.16622   1.54074 
 1                    -0.67595   0.66749  -1.54681 
 1                    -0.87328   1.12263   1.44643 
 1                    -0.98623  -1.709    -1.35686 
 1                    -1.07608  -1.54937   1.44253 
 1                    -2.75781  -0.14096   0.09995 
 1                     0.3733    2.58825  -0.60615 
 
                          Input orientation:                          
 ---------------------------------------------------------------------
 Center     Atomic      Atomic             Coordinates (Angstroms)
 Number     Number       Type             X           Y           Z
 ---------------------------------------------------------------------
      1          6           0        1.746955   -0.673597   -1.040899
      2          6           0        0.776452   -1.415123   -0.111163
      3          6           0        1.103673    0.602094    0.771641
      4          6           0       -1.024995    0.316854   -0.568436
      5          6           0       -0.303746    1.162078    0.511718
      6          6           0       -0.703626   -1.193300   -0.433884
      7          8           0        1.029420   -0.760511    1.153388
      8          8           0        1.857943    0.634912   -0.443281
      9          8           0       -1.516194   -1.762008    0.599040
     10          8           0       -2.430312    0.509913   -0.549957
     11          8           0       -0.231522    2.536295    0.155055
     12          1           0        1.381447   -0.584373   -2.068516
     13          1           0        2.733120   -1.147818   -1.048496
     14          1           0        1.001819   -2.475901    0.009357
     15          1           0        1.636709    1.166216    1.540740
     16          1           0       -0.675952    0.667492   -1.546805
     17          1           0       -0.873279    1.122629    1.446427
     18          1           0       -0.986226   -1.709002   -1.356859
     19          1           0       -1.076080   -1.549370    1.442530
     20          1           0       -2.757813   -0.140961    0.099946
     21          1           0        0.373295    2.588249   -0.606150
 ---------------------------------------------------------------------
                    Distance matrix (angstroms):
                    1          2          3          4          5
     1  C    0.000000
     2  C    1.534974   0.000000
     3  C    2.307921   2.226113   0.000000
     4  C    2.981262   2.540483   2.531481   0.000000
     5  C    3.160015   2.863001   1.536870   1.549625   0.000000
     6  C    2.577577   1.531008   2.818343   1.549822   2.569411
     7  O    2.310261   1.446236   1.417017   2.888947   2.425989
     8  O    1.442796   2.341489   1.430397   2.903129   2.421327
     9  O    3.810798   2.425066   3.533054   2.434326   3.166691
    10  O    4.369357   3.765852   3.774145   1.418636   2.464702
    11  O    3.955766   4.086635   2.429827   2.465554   1.421583
    12  H    1.094328   2.210745   3.090527   2.975469   3.542256
    13  H    1.094287   2.186000   3.005027   4.061915   4.122189
    14  H    2.215077   1.091130   3.172618   3.498757   3.897661
    15  H    3.172054   3.183102   1.092646   3.500672   2.196422
    16  H    2.815127   2.916819   2.923446   1.096350   2.149574
    17  H    4.034705   3.404098   2.152820   2.175308   1.095265
    18  H    2.939757   2.178338   3.773507   2.174214   3.492916
    19  H    3.860560   2.421541   3.135317   2.743973   2.968983
    20  H    4.677410   3.762856   3.989283   1.912848   2.808899
    21  H    3.565892   4.053953   2.525187   2.667559   1.934419
                    6          7          8          9         10
     6  C    0.000000
     7  O    2.389600   0.000000
     8  O    3.147075   2.276622   0.000000
     9  O    1.432001   2.791138   4.268074   0.000000
    10  O    2.428138   4.060186   4.291403   2.705075   0.000000
    11  O    3.805208   3.668184   2.887755   4.508094   3.072124
    12  H    2.718519   3.245861   2.086886   4.110840   4.246527
    13  H    3.491567   2.810853   2.076137   4.598725   5.445883
    14  H    2.179466   2.062070   3.258065   2.682864   4.583387
    15  H    3.865698   2.056968   2.065809   4.404781   4.619784
    16  H    2.168388   3.498361   2.763956   3.348601   2.023936
    17  H    2.987956   2.693019   3.356849   3.074498   2.604865
    18  H    1.094392   3.356159   3.797085   2.027120   2.767681
    19  H    1.945877   2.266943   4.115320   0.974880   3.169321
    20  H    2.368982   3.979537   4.711929   2.102024   0.976354
    21  H    3.935676   3.839358   2.458909   4.893607   3.490394
                   11         12         13         14         15
    11  O    0.000000
    12  H    4.157464   0.000000
    13  H    4.879583   1.784637   0.000000
    14  H    5.163765   2.835410   2.424925   0.000000
    15  H    2.699542   4.019509   3.641567   4.001654   0.000000
    16  H    2.566373   2.464191   3.894282   3.888120   3.889738
    17  H    2.019392   4.511371   4.938186   4.304716   2.512137
    18  H    4.569246   2.716086   3.774063   2.531206   4.852087
    19  H    4.366180   4.392961   4.569076   2.688886   3.839697
    20  H    3.681424   4.693859   5.699388   4.426622   4.805874
    21  H    0.973620   3.635989   4.441018   5.139991   2.868367
                   16         17         18         19         20
    16  H    0.000000
    17  H    3.034061   0.000000
    18  H    2.404178   3.986139   0.000000
    19  H    3.743087   2.679687   2.805376   0.000000
    20  H    2.774803   2.638397   2.778409   2.571842   0.000000
    21  H    2.382238   2.813372   4.569270   4.839181   4.213193
                   21
    21  H    0.000000
 Stoichiometry    C6H10O5
 Framework group  C1[X(C6H10O5)]
 Deg. of freedom    57
 Full point group                 C1      NOp   1
 Largest Abelian subgroup         C1      NOp   1
 Largest concise Abelian subgroup C1      NOp   1
                         Standard orientation:                         
 ---------------------------------------------------------------------
 Center     Atomic      Atomic             Coordinates (Angstroms)
 Number     Number       Type             X           Y           Z
 ---------------------------------------------------------------------
      1          6           0        1.746955   -0.673597   -1.040899
      2          6           0        0.776452   -1.415123   -0.111163
      3          6           0        1.103673    0.602094    0.771641
      4          6           0       -1.024995    0.316854   -0.568436
      5          6           0       -0.303746    1.162078    0.511718
      6          6           0       -0.703626   -1.193300   -0.433884
      7          8           0        1.029420   -0.760511    1.153388
      8          8           0        1.857943    0.634912   -0.443281
      9          8           0       -1.516194   -1.762008    0.599040
     10          8           0       -2.430312    0.509913   -0.549957
     11          8           0       -0.231522    2.536295    0.155055
     12          1           0        1.381447   -0.584373   -2.068516
     13          1           0        2.733120   -1.147818   -1.048496
     14          1           0        1.001819   -2.475901    0.009357
     15          1           0        1.636709    1.166216    1.540740
     16          1           0       -0.675952    0.667492   -1.546805
     17          1           0       -0.873279    1.122629    1.446427
     18          1           0       -0.986226   -1.709002   -1.356859
     19          1           0       -1.076080   -1.549370    1.442530
     20          1           0       -2.757813   -0.140961    0.099946
     21          1           0        0.373295    2.588249   -0.606150
 ---------------------------------------------------------------------
 Rotational constants (GHZ):      1.4637209      1.3015065      0.8856219
 Standard basis: 6-31+G(d,p) (6D, 7F)
 There are   259 symmetry adapted basis functions of A   symmetry.
 Integral buffers will be    131072 words long.
 Raffenetti 2 integral format.
 Two-electron integral symmetry is turned on.
   259 basis functions,   422 primitive gaussians,   259 cartesian basis functions
    43 alpha electrons       43 beta electrons
       nuclear repulsion energy       727.8925457505 Hartrees.
 NAtoms=   21 NActive=   21 NUniq=   21 SFac= 1.00D+00 NAtFMM=   60 NAOKFM=F Big=F
 ------------------------------------------------------------------------------
 Polarizable Continuum Model (PCM)
 =================================
 Model                : C-PCM.
 Atomic radii         : SMD-Coulomb.
 Polarization charges : Total charges.
 Charge compensation  : None.
 Solution method      : Matrix inversion.
 Cavity type          : VdW (van der Waals Surface) (Alpha=1.000).
 Cavity algorithm     : GePol (No added spheres)
                        Default sphere list used, NSphG=   21.
                        Lebedev-Laikov grids with approx.  5.0 points / Ang**2.
                        Smoothing algorithm: Karplus/York (Gamma=1.0000).
                        Polarization charges: spherical gaussians, with
                                              point-specific exponents (IZeta= 3).
                        Self-potential: point-specific (ISelfS= 7).
                        Self-field    : sphere-specific E.n sum rule (ISelfD= 2).
 Solvent              : Water, Eps=  78.355300 Eps(inf)=   1.777849
 ------------------------------------------------------------------------------
 ------------------------------------------------------------------------------
 Atomic radii for non-electrostatic terms: SMD-CDS.
 ------------------------------------------------------------------------------
 Nuclear repulsion after PCM non-electrostatic terms =      727.8972093593 Hartrees.
 One-electron integrals computed using PRISM.
 NBasis=   259 RedAO= T  NBF=   259
 NBsUse=   259 1.00D-06 NBFU=   259
 Harris functional with IExCor=  402 diagonalized for initial guess.
 ExpMin= 4.38D-02 ExpMax= 5.48D+03 ExpMxC= 8.25D+02 IAcc=2 IRadAn=         4 AccDes= 0.00D+00
 HarFok:  IExCor=  402 AccDes= 0.00D+00 IRadAn=         4 IDoV= 1
 ScaDFX=  1.000000  1.000000  1.000000  1.000000
 FoFCou: FMM=F IPFlag=           0 FMFlag=      100000 FMFlg1=           0
         NFxFlg=           0 DoJE=T BraDBF=F KetDBF=T FulRan=T
         Omega=  0.000000  0.000000  1.000000  0.000000  0.000000 ICntrl=     500 IOpCl=  0
         NMat0=    1 NMatS0=    1 NMatT0=    0 NMatD0=    1 NMtDS0=    0 NMtDT0=    0
         I1Cent=           4 NGrid=           0.
 Petite list used in FoFCou.
 Initial guess orbital symmetries:
       Occupied  (A) (A) (A) (A) (A) (A) (A) (A) (A) (A) (A) (A)
                 (A) (A) (A) (A) (A) (A) (A) (A) (A) (A) (A) (A)
                 (A) (A) (A) (A) (A) (A) (A) (A) (A) (A) (A) (A)
                 (A) (A) (A) (A) (A) (A) (A)
       Virtual   (A) (A) (A) (A) (A) (A) (A) (A) (A) (A) (A) (A)
                 (A) (A) (A) (A) (A) (A) (A) (A) (A) (A) (A) (A)
                 (A) (A) (A) (A) (A) (A) (A) (A) (A) (A) (A) (A)
                 (A) (A) (A) (A) (A) (A) (A) (A) (A) (A) (A) (A)
                 (A) (A) (A) (A) (A) (A) (A) (A) (A) (A) (A) (A)
                 (A) (A) (A) (A) (A) (A) (A) (A) (A) (A) (A) (A)
                 (A) (A) (A) (A) (A) (A) (A) (A) (A) (A) (A) (A)
                 (A) (A) (A) (A) (A) (A) (A) (A) (A) (A) (A) (A)
                 (A) (A) (A) (A) (A) (A) (A) (A) (A) (A) (A) (A)
                 (A) (A) (A) (A) (A) (A) (A) (A) (A) (A) (A) (A)
                 (A) (A) (A) (A) (A) (A) (A) (A) (A) (A) (A) (A)
                 (A) (A) (A) (A) (A) (A) (A) (A) (A) (A) (A) (A)
                 (A) (A) (A) (A) (A) (A) (A) (A) (A) (A) (A) (A)
                 (A) (A) (A) (A) (A) (A) (A) (A) (A) (A) (A) (A)
                 (A) (A) (A) (A) (A) (A) (A) (A) (A) (A) (A) (A)
                 (A) (A) (A) (A) (A) (A) (A) (A) (A) (A) (A) (A)
                 (A) (A) (A) (A) (A) (A) (A) (A) (A) (A) (A) (A)
                 (A) (A) (A) (A) (A) (A) (A) (A) (A) (A) (A) (A)
 The electronic state of the initial guess is 1-A.
 Requested convergence on RMS density matrix=1.00D-08 within 128 cycles.
 Requested convergence on MAX density matrix=1.00D-06.
 Requested convergence on             energy=1.00D-06.
 No special actions if energy rises.
 Error on total polarization charges =  0.05871
 SCF Done:  E(RB3LYP) =  -610.812281467     A.U. after   12 cycles
             Convg  =    0.4688D-08             -V/T =  2.0090
 SMD-CDS (non-electrostatic) energy       (kcal/mol) =       2.93
 (included in total energy above)

 **********************************************************************

            Population analysis using the SCF density.

 **********************************************************************

 Orbital symmetries:
       Occupied  (A) (A) (A) (A) (A) (A) (A) (A) (A) (A) (A) (A)
                 (A) (A) (A) (A) (A) (A) (A) (A) (A) (A) (A) (A)
                 (A) (A) (A) (A) (A) (A) (A) (A) (A) (A) (A) (A)
                 (A) (A) (A) (A) (A) (A) (A)
       Virtual   (A) (A) (A) (A) (A) (A) (A) (A) (A) (A) (A) (A)
                 (A) (A) (A) (A) (A) (A) (A) (A) (A) (A) (A) (A)
                 (A) (A) (A) (A) (A) (A) (A) (A) (A) (A) (A) (A)
                 (A) (A) (A) (A) (A) (A) (A) (A) (A) (A) (A) (A)
                 (A) (A) (A) (A) (A) (A) (A) (A) (A) (A) (A) (A)
                 (A) (A) (A) (A) (A) (A) (A) (A) (A) (A) (A) (A)
                 (A) (A) (A) (A) (A) (A) (A) (A) (A) (A) (A) (A)
                 (A) (A) (A) (A) (A) (A) (A) (A) (A) (A) (A) (A)
                 (A) (A) (A) (A) (A) (A) (A) (A) (A) (A) (A) (A)
                 (A) (A) (A) (A) (A) (A) (A) (A) (A) (A) (A) (A)
                 (A) (A) (A) (A) (A) (A) (A) (A) (A) (A) (A) (A)
                 (A) (A) (A) (A) (A) (A) (A) (A) (A) (A) (A) (A)
                 (A) (A) (A) (A) (A) (A) (A) (A) (A) (A) (A) (A)
                 (A) (A) (A) (A) (A) (A) (A) (A) (A) (A) (A) (A)
                 (A) (A) (A) (A) (A) (A) (A) (A) (A) (A) (A) (A)
                 (A) (A) (A) (A) (A) (A) (A) (A) (A) (A) (A) (A)
                 (A) (A) (A) (A) (A) (A) (A) (A) (A) (A) (A) (A)
                 (A) (A) (A) (A) (A) (A) (A) (A) (A) (A) (A) (A)
 The electronic state is 1-A.
 Alpha  occ. eigenvalues --  -19.18895 -19.17835 -19.17467 -19.17144 -19.16644
 Alpha  occ. eigenvalues --  -10.29516 -10.25446 -10.24980 -10.24450 -10.24350
 Alpha  occ. eigenvalues --  -10.24337  -1.11433  -1.05406  -1.04180  -1.02313
 Alpha  occ. eigenvalues --   -1.01198  -0.79675  -0.77636  -0.68204  -0.65638
 Alpha  occ. eigenvalues --   -0.62958  -0.59516  -0.56024  -0.52921  -0.51324
 Alpha  occ. eigenvalues --   -0.50074  -0.49209  -0.47301  -0.45579  -0.44523
 Alpha  occ. eigenvalues --   -0.42755  -0.41427  -0.40687  -0.39218  -0.37689
 Alpha  occ. eigenvalues --   -0.36218  -0.35008  -0.33842  -0.33388  -0.31656
 Alpha  occ. eigenvalues --   -0.28887  -0.28191  -0.26113
 Alpha virt. eigenvalues --    0.00916   0.01724   0.02086   0.02389   0.04264
 Alpha virt. eigenvalues --    0.04914   0.05322   0.05773   0.06148   0.07746
 Alpha virt. eigenvalues --    0.08734   0.09712   0.10504   0.10678   0.11316
 Alpha virt. eigenvalues --    0.12178   0.12670   0.13617   0.13950   0.14553
 Alpha virt. eigenvalues --    0.15409   0.15674   0.16145   0.16646   0.17167
 Alpha virt. eigenvalues --    0.17366   0.18988   0.19362   0.20315   0.20397
 Alpha virt. eigenvalues --    0.21617   0.21720   0.22392   0.22901   0.23339
 Alpha virt. eigenvalues --    0.23965   0.24830   0.25028   0.25767   0.26387
 Alpha virt. eigenvalues --    0.28075   0.28375   0.28742   0.29297   0.30384
 Alpha virt. eigenvalues --    0.30556   0.31492   0.31914   0.32729   0.33489
 Alpha virt. eigenvalues --    0.33894   0.34213   0.34858   0.35240   0.36216
 Alpha virt. eigenvalues --    0.37209   0.37293   0.38003   0.38436   0.39135
 Alpha virt. eigenvalues --    0.40682   0.42316   0.42825   0.44764   0.45701
 Alpha virt. eigenvalues --    0.47738   0.64084   0.65523   0.66059   0.66938
 Alpha virt. eigenvalues --    0.69328   0.71367   0.75126   0.75287   0.76822
 Alpha virt. eigenvalues --    0.79560   0.80884   0.83816   0.84198   0.86038
 Alpha virt. eigenvalues --    0.87170   0.88543   0.94169   0.95709   0.97349
 Alpha virt. eigenvalues --    1.00927   1.02974   1.03594   1.04345   1.06750
 Alpha virt. eigenvalues --    1.07491   1.09199   1.10923   1.12222   1.13548
 Alpha virt. eigenvalues --    1.17485   1.19976   1.21921   1.24192   1.25175
 Alpha virt. eigenvalues --    1.27286   1.28575   1.29496   1.30359   1.33435
 Alpha virt. eigenvalues --    1.33966   1.35087   1.37476   1.38576   1.39353
 Alpha virt. eigenvalues --    1.41817   1.42446   1.44054   1.45315   1.50615
 Alpha virt. eigenvalues --    1.51476   1.53324   1.55036   1.57463   1.59427
 Alpha virt. eigenvalues --    1.60381   1.62649   1.64931   1.66101   1.67382
 Alpha virt. eigenvalues --    1.70166   1.72660   1.74381   1.75282   1.77621
 Alpha virt. eigenvalues --    1.80733   1.81695   1.83585   1.85691   1.87465
 Alpha virt. eigenvalues --    1.88377   1.91300   1.92366   1.97335   1.98600
 Alpha virt. eigenvalues --    2.00271   2.02845   2.04313   2.07295   2.08120
 Alpha virt. eigenvalues --    2.10300   2.11680   2.14524   2.15951   2.17125
 Alpha virt. eigenvalues --    2.19567   2.20869   2.21623   2.22887   2.27418
 Alpha virt. eigenvalues --    2.29718   2.35451   2.38230   2.39854   2.43691
 Alpha virt. eigenvalues --    2.44069   2.46839   2.48522   2.51167   2.51798
 Alpha virt. eigenvalues --    2.54924   2.56039   2.57225   2.59887   2.62867
 Alpha virt. eigenvalues --    2.63713   2.66031   2.66476   2.69444   2.70013
 Alpha virt. eigenvalues --    2.72158   2.73588   2.74951   2.78365   2.80223
 Alpha virt. eigenvalues --    2.81733   2.85175   2.86808   2.87370   2.89535
 Alpha virt. eigenvalues --    2.94806   2.95157   2.97111   2.97478   3.01579
 Alpha virt. eigenvalues --    3.06547   3.08608   3.09558   3.11845   3.20178
 Alpha virt. eigenvalues --    3.33704   3.39812   3.41631   3.45086   3.49394
 Alpha virt. eigenvalues --    3.49663   3.51396   3.55777   3.57532   3.59486
 Alpha virt. eigenvalues --    4.26192   4.31328   4.39548   4.40059   4.47665
 Alpha virt. eigenvalues --    4.57441   4.59935   4.70400   4.82640   4.89578
 Alpha virt. eigenvalues --    4.91158
          Condensed to atoms (all electrons):
              1          2          3          4          5          6
     1  C    5.497195  -0.142489  -0.332001  -0.102269   0.122314   0.039572
     2  C   -0.142489   6.658660  -0.444856   0.171946   0.133707  -0.569115
     3  C   -0.332001  -0.444856   6.558389   0.451098  -1.093843   0.157420
     4  C   -0.102269   0.171946   0.451098   6.423282  -0.891819  -0.309399
     5  C    0.122314   0.133707  -1.093843  -0.891819   7.141045   0.055327
     6  C    0.039572  -0.569115   0.157420  -0.309399   0.055327   6.096571
     7  O   -0.028721   0.084386   0.229674  -0.056748  -0.050143  -0.065962
     8  O    0.159624  -0.129577   0.313756   0.029495  -0.194270  -0.008041
     9  O    0.005111  -0.102908  -0.045143  -0.140318   0.064992   0.289788
    10  O    0.002637   0.002807   0.028775   0.233620  -0.126517  -0.052708
    11  O    0.024731  -0.022699  -0.088801  -0.145158   0.270548   0.038183
    12  H    0.456827  -0.158477   0.013901  -0.040559   0.017454   0.068235
    13  H    0.416669  -0.012395  -0.021195   0.003965   0.003615  -0.010532
    14  H   -0.010220   0.327109   0.031240   0.011716  -0.014861  -0.005298
    15  H    0.016390   0.024881   0.371042   0.016995  -0.035981  -0.019165
    16  H   -0.003406  -0.013800  -0.005001   0.479086  -0.071494  -0.054523
    17  H    0.005354  -0.020845  -0.073463  -0.092087   0.476343   0.027240
    18  H    0.020817  -0.057159  -0.021561  -0.063790   0.044292   0.405879
    19  H    0.005872  -0.028221   0.001101  -0.016224   0.010249   0.009842
    20  H   -0.001248   0.012859  -0.000749   0.049707  -0.038594  -0.047616
    21  H    0.003961  -0.005610  -0.041414  -0.048654   0.064890   0.006047
              7          8          9         10         11         12
     1  C   -0.028721   0.159624   0.005111   0.002637   0.024731   0.456827
     2  C    0.084386  -0.129577  -0.102908   0.002807  -0.022699  -0.158477
     3  C    0.229674   0.313756  -0.045143   0.028775  -0.088801   0.013901
     4  C   -0.056748   0.029495  -0.140318   0.233620  -0.145158  -0.040559
     5  C   -0.050143  -0.194270   0.064992  -0.126517   0.270548   0.017454
     6  C   -0.065962  -0.008041   0.289788  -0.052708   0.038183   0.068235
     7  O    8.387328  -0.043921  -0.004399  -0.001445   0.007488   0.010893
     8  O   -0.043921   8.445514   0.000212  -0.000523  -0.002695  -0.044330
     9  O   -0.004399   0.000212   8.341819  -0.027208  -0.002658   0.000276
    10  O   -0.001445  -0.000523  -0.027208   8.365315   0.004928  -0.000122
    11  O    0.007488  -0.002695  -0.002658   0.004928   8.319517   0.000564
    12  H    0.010893  -0.044330   0.000276  -0.000122   0.000564   0.531564
    13  H   -0.001795  -0.049961  -0.000196   0.000016  -0.000137  -0.038826
    14  H   -0.037090   0.007095   0.002508  -0.000578   0.000073   0.002196
    15  H   -0.044713  -0.046621   0.000028  -0.000438   0.003010  -0.000266
    16  H    0.000552   0.001878   0.008192  -0.060594  -0.009062   0.001105
    17  H    0.002558   0.009582   0.002397  -0.000892  -0.060805  -0.000018
    18  H    0.009241  -0.000075  -0.053218   0.001669  -0.000407   0.000097
    19  H    0.024661  -0.000395   0.250938  -0.000050   0.000044  -0.000014
    20  H   -0.000621   0.000128   0.029593   0.246279  -0.000296  -0.000007
    21  H    0.000449   0.019395   0.000134  -0.000419   0.248516  -0.000118
             13         14         15         16         17         18
     1  C    0.416669  -0.010220   0.016390  -0.003406   0.005354   0.020817
     2  C   -0.012395   0.327109   0.024881  -0.013800  -0.020845  -0.057159
     3  C   -0.021195   0.031240   0.371042  -0.005001  -0.073463  -0.021561
     4  C    0.003965   0.011716   0.016995   0.479086  -0.092087  -0.063790
     5  C    0.003615  -0.014861  -0.035981  -0.071494   0.476343   0.044292
     6  C   -0.010532  -0.005298  -0.019165  -0.054523   0.027240   0.405879
     7  O   -0.001795  -0.037090  -0.044713   0.000552   0.002558   0.009241
     8  O   -0.049961   0.007095  -0.046621   0.001878   0.009582  -0.000075
     9  O   -0.000196   0.002508   0.000028   0.008192   0.002397  -0.053218
    10  O    0.000016  -0.000578  -0.000438  -0.060594  -0.000892   0.001669
    11  O   -0.000137   0.000073   0.003010  -0.009062  -0.060805  -0.000407
    12  H   -0.038826   0.002196  -0.000266   0.001105  -0.000018   0.000097
    13  H    0.543764  -0.003797   0.000267   0.000059   0.000018   0.000010
    14  H   -0.003797   0.509599  -0.000065  -0.000096  -0.000011  -0.002286
    15  H    0.000267  -0.000065   0.542788  -0.000240  -0.003234   0.000020
    16  H    0.000059  -0.000096  -0.000240   0.537698   0.004056  -0.004842
    17  H    0.000018  -0.000011  -0.003234   0.004056   0.539737  -0.000176
    18  H    0.000010  -0.002286   0.000020  -0.004842  -0.000176   0.537030
    19  H   -0.000006  -0.000954   0.000083  -0.000186  -0.000793   0.005735
    20  H    0.000000  -0.000017  -0.000004   0.006053   0.001283  -0.001124
    21  H    0.000028   0.000000  -0.000680   0.003697   0.006615  -0.000013
             19         20         21
     1  C    0.005872  -0.001248   0.003961
     2  C   -0.028221   0.012859  -0.005610
     3  C    0.001101  -0.000749  -0.041414
     4  C   -0.016224   0.049707  -0.048654
     5  C    0.010249  -0.038594   0.064890
     6  C    0.009842  -0.047616   0.006047
     7  O    0.024661  -0.000621   0.000449
     8  O   -0.000395   0.000128   0.019395
     9  O    0.250938   0.029593   0.000134
    10  O   -0.000050   0.246279  -0.000419
    11  O    0.000044  -0.000296   0.248516
    12  H   -0.000014  -0.000007  -0.000118
    13  H   -0.000006   0.000000   0.000028
    14  H   -0.000954  -0.000017   0.000000
    15  H    0.000083  -0.000004  -0.000680
    16  H   -0.000186   0.006053   0.003697
    17  H   -0.000793   0.001283   0.006615
    18  H    0.005735  -0.001124  -0.000013
    19  H    0.329501  -0.002042  -0.000004
    20  H   -0.002042   0.340360  -0.000001
    21  H   -0.000004  -0.000001   0.344173
 Mulliken atomic charges:
              1
     1  C   -0.156718
     2  C    0.291795
     3  C    0.011628
     4  C    0.036115
     5  C    0.112747
     6  C   -0.051744
     7  O   -0.421675
     8  O   -0.466271
     9  O   -0.619941
    10  O   -0.614550
    11  O   -0.584885
    12  H    0.179625
    13  H    0.170430
    14  H    0.183736
    15  H    0.175903
    16  H    0.180870
    17  H    0.177142
    18  H    0.179860
    19  H    0.410864
    20  H    0.406058
    21  H    0.399010
 Sum of Mulliken atomic charges =   0.00000
 Mulliken charges with hydrogens summed into heavy atoms:
              1
     1  C    0.193337
     2  C    0.475531
     3  C    0.187532
     4  C    0.216985
     5  C    0.289890
     6  C    0.128115
     7  O   -0.421675
     8  O   -0.466271
     9  O   -0.209077
    10  O   -0.208493
    11  O   -0.185875
 Sum of Mulliken charges with hydrogens summed into heavy atoms =   0.00000
 Electronic spatial extent (au):  <R**2>=           1431.5209
 Charge=              0.0000 electrons
 Dipole moment (field-independent basis, Debye):
    X=              3.2791    Y=             -3.7025    Z=             -1.0016  Tot=              5.0462
 Quadrupole moment (field-independent basis, Debye-Ang):
   XX=            -75.1600   YY=            -72.8290   ZZ=            -59.3807
   XY=              0.7591   XZ=             -6.0394   YZ=              2.4533
 Traceless Quadrupole moment (field-independent basis, Debye-Ang):
   XX=             -6.0368   YY=             -3.7058   ZZ=              9.7426
   XY=              0.7591   XZ=             -6.0394   YZ=              2.4533
 Octapole moment (field-independent basis, Debye-Ang**2):
  XXX=             11.7956  YYY=            -20.1108  ZZZ=              1.3339  XYY=             24.4280
  XXY=            -11.6012  XXZ=             10.9179  XZZ=             -0.6617  YZZ=              0.8735
  YYZ=            -12.2850  XYZ=              2.2460
 Hexadecapole moment (field-independent basis, Debye-Ang**3):
 XXXX=           -836.1234 YYYY=           -768.1884 ZZZZ=           -257.6685 XXXY=              2.8826
 XXXZ=            -35.6719 YYYX=              4.5828 YYYZ=            -30.3650 ZZZX=            -16.1329
 ZZZY=             -4.1391 XXYY=           -275.9152 XXZZ=           -180.2520 YYZZ=           -149.5909
 XXYZ=             22.9567 YYXZ=             -0.4077 ZZXY=             11.7173
 N-N= 7.278972093593D+02 E-N=-2.884968162730D+03  KE= 6.053417106138D+02

 Test job not archived.
 1\1\GINC-COMPUTE-8-8\SP\RB3LYP\6-31+G(d,p)\C6H10O5\ASAROTTI.IQUIR\15-A
 pr-2019\0\\# B3LYP/6-31+G** test scrf=(pcm,solvent=water,smd,dovacuum)
 \\comment\\0,1\C,0,1.746955,-0.673597,-1.040899\C,0,0.776452,-1.415123
 ,-0.111163\C,0,1.103673,0.602094,0.771641\C,0,-1.024995,0.316854,-0.56
 8436\C,0,-0.303746,1.162078,0.511718\C,0,-0.703626,-1.1933,-0.433884\O
 ,0,1.02942,-0.760511,1.153388\O,0,1.857943,0.634912,-0.443281\O,0,-1.5
 16194,-1.762008,0.59904\O,0,-2.430312,0.509913,-0.549957\O,0,-0.231522
 ,2.536295,0.155055\H,0,1.381447,-0.584373,-2.068516\H,0,2.73312,-1.147
 818,-1.048496\H,0,1.001819,-2.475901,0.009357\H,0,1.636709,1.166216,1.
 54074\H,0,-0.675952,0.667492,-1.546805\H,0,-0.873279,1.122629,1.446427
 \H,0,-0.986226,-1.709002,-1.356859\H,0,-1.07608,-1.54937,1.44253\H,0,-
 2.757813,-0.140961,0.099946\H,0,0.373295,2.588249,-0.60615\\Version=EM
 64L-G09RevC.01\State=1-A\HF=-610.8122815\RMSD=4.688e-09\Dipole=1.29010
 18,-1.4566628,-0.3940504\Quadrupole=-4.4881861,-2.7551813,7.2433674,0.
 5644055,-4.4901298,1.8239799\PG=C01 [X(C6H10O5)]\\@


 IN-LAWS ARE LIKE SEEDS. YOU DON'T NEED THEM
 BUT THEY COME WITH THE TOMATO.
 Job cpu time:  0 days  0 hours  9 minutes 23.8 seconds.
 File lengths (MBytes):  RWF=     56 Int=      0 D2E=      0 Chk=      4 Scr=      1
 Normal termination of Gaussian 09 at Mon Apr 15 18:56:22 2019.
