 Entering Gaussian System, Link 0=g09
 Input=/home/asarotti.iquir/SCF3/08_SRR_Levo08_OPTB_energy_b3lyp_smd.gjc
 Output=/home/asarotti.iquir/SCF3/08_SRR_Levo08_OPTB_energy_b3lyp_smd.log
 Initial command:
 /share/apps/Gaussian09/EM64T.SSE4.2-enabled/g09/l1.exe /tmp/Gau-10487.inp -scrdir=/tmp/
 Entering Link 1 = /share/apps/Gaussian09/EM64T.SSE4.2-enabled/g09/l1.exe PID=     10488.
  
 Copyright (c) 1988,1990,1992,1993,1995,1998,2003,2009,2011,
            Gaussian, Inc.  All Rights Reserved.
  
 This is part of the Gaussian(R) 09 program.  It is based on
 the Gaussian(R) 03 system (copyright 2003, Gaussian, Inc.),
 the Gaussian(R) 98 system (copyright 1998, Gaussian, Inc.),
 the Gaussian(R) 94 system (copyright 1995, Gaussian, Inc.),
 the Gaussian 92(TM) system (copyright 1992, Gaussian, Inc.),
 the Gaussian 90(TM) system (copyright 1990, Gaussian, Inc.),
 the Gaussian 88(TM) system (copyright 1988, Gaussian, Inc.),
 the Gaussian 86(TM) system (copyright 1986, Carnegie Mellon
 University), and the Gaussian 82(TM) system (copyright 1983,
 Carnegie Mellon University). Gaussian is a federally registered
 trademark of Gaussian, Inc.
  
 This software contains proprietary and confidential information,
 including trade secrets, belonging to Gaussian, Inc.
  
 This software is provided under written license and may be
 used, copied, transmitted, or stored only in accord with that
 written license.
  
 The following legend is applicable only to US Government
 contracts under FAR:
  
                    RESTRICTED RIGHTS LEGEND
  
 Use, reproduction and disclosure by the US Government is
 subject to restrictions as set forth in subparagraphs (a)
 and (c) of the Commercial Computer Software - Restricted
 Rights clause in FAR 52.227-19.
  
 Gaussian, Inc.
 340 Quinnipiac St., Bldg. 40, Wallingford CT 06492
  
  
 ---------------------------------------------------------------
 Warning -- This program may not be used in any manner that
 competes with the business of Gaussian, Inc. or will provide
 assistance to any competitor of Gaussian, Inc.  The licensee
 of this program is prohibited from giving any competitor of
 Gaussian, Inc. access to this program.  By using this program,
 the user acknowledges that Gaussian, Inc. is engaged in the
 business of creating and licensing software in the field of
 computational chemistry and represents and warrants to the
 licensee that it is not a competitor of Gaussian, Inc. and that
 it will not use this program in any manner prohibited above.
 ---------------------------------------------------------------
  

 Cite this work as:
 Gaussian 09, Revision C.01,
 M. J. Frisch, G. W. Trucks, H. B. Schlegel, G. E. Scuseria, 
 M. A. Robb, J. R. Cheeseman, G. Scalmani, V. Barone, B. Mennucci, 
 G. A. Petersson, H. Nakatsuji, M. Caricato, X. Li, H. P. Hratchian, 
 A. F. Izmaylov, J. Bloino, G. Zheng, J. L. Sonnenberg, M. Hada, 
 M. Ehara, K. Toyota, R. Fukuda, J. Hasegawa, M. Ishida, T. Nakajima, 
 Y. Honda, O. Kitao, H. Nakai, T. Vreven, J. A. Montgomery, Jr., 
 J. E. Peralta, F. Ogliaro, M. Bearpark, J. J. Heyd, E. Brothers, 
 K. N. Kudin, V. N. Staroverov, T. Keith, R. Kobayashi, J. Normand, 
 K. Raghavachari, A. Rendell, J. C. Burant, S. S. Iyengar, J. Tomasi, 
 M. Cossi, N. Rega, J. M. Millam, M. Klene, J. E. Knox, J. B. Cross, 
 V. Bakken, C. Adamo, J. Jaramillo, R. Gomperts, R. E. Stratmann, 
 O. Yazyev, A. J. Austin, R. Cammi, C. Pomelli, J. W. Ochterski, 
 R. L. Martin, K. Morokuma, V. G. Zakrzewski, G. A. Voth, 
 P. Salvador, J. J. Dannenberg, S. Dapprich, A. D. Daniels, 
 O. Farkas, J. B. Foresman, J. V. Ortiz, J. Cioslowski, 
 and D. J. Fox, Gaussian, Inc., Wallingford CT, 2010.
 
 ******************************************
 Gaussian 09:  EM64L-G09RevC.01 23-Sep-2011
                15-Apr-2019 
 ******************************************
 %nprocshared=4
 Will use up to    4 processors via shared memory.
 -----------------------------------------------------------
 # B3LYP/6-31+G** test scrf=(pcm,solvent=water,smd,dovacuum)
 -----------------------------------------------------------
 1/38=1/1;
 2/12=2,17=6,18=5,40=1/2;
 3/5=1,6=6,7=111,11=2,16=1,25=1,30=1,70=32101,72=1,74=-5/1,2,3;
 4//1;
 5/5=2,38=5,53=1/2;
 6/7=2,8=2,9=2,10=2,28=1/1;
 99/5=1,9=1/99;
 -------
 comment
 -------
 Charge =  0 Multiplicity = 1
 Symbolic Z-Matrix:
 6                    -1.87772  -0.03903  -1.06809 
 6                    -1.29125   0.99355  -0.09754 
 6                    -0.79534  -1.02092   0.71295 
 6                     1.023     0.14209  -0.56626 
 6                     0.72862  -0.89968   0.51982 
 6                     0.16474   1.41014  -0.37384 
 8                    -1.28647   0.24347   1.14146 
 8                    -1.45574  -1.30251  -0.5172 
 8                     0.62295   2.23164   0.694 
 8                     2.39824   0.49355  -0.59399 
 8                     1.33779  -2.11474   0.0923 
 1                    -1.50509   0.0641   -2.09201 
 1                    -2.97185   0.00136  -1.07748 
 1                    -1.92158   1.87214   0.04753 
 1                    -1.06763  -1.78121   1.45031 
 1                     0.73725  -0.3143   -1.52573 
 1                     1.16355  -0.56309   1.47128 
 1                     0.22478   2.02659  -1.27686 
 1                     0.34022   1.79232   1.51529 
 1                     2.87917  -0.34742  -0.67711 
 1                     1.47465  -2.67865   0.86993 
 
                          Input orientation:                          
 ---------------------------------------------------------------------
 Center     Atomic      Atomic             Coordinates (Angstroms)
 Number     Number       Type             X           Y           Z
 ---------------------------------------------------------------------
      1          6           0       -1.877716   -0.039025   -1.068086
      2          6           0       -1.291247    0.993550   -0.097538
      3          6           0       -0.795336   -1.020920    0.712951
      4          6           0        1.023003    0.142094   -0.566263
      5          6           0        0.728623   -0.899684    0.519821
      6          6           0        0.164738    1.410137   -0.373838
      7          8           0       -1.286467    0.243473    1.141455
      8          8           0       -1.455741   -1.302513   -0.517198
      9          8           0        0.622949    2.231635    0.694003
     10          8           0        2.398243    0.493548   -0.593986
     11          8           0        1.337786   -2.114736    0.092296
     12          1           0       -1.505091    0.064095   -2.092010
     13          1           0       -2.971849    0.001359   -1.077478
     14          1           0       -1.921580    1.872139    0.047534
     15          1           0       -1.067630   -1.781207    1.450311
     16          1           0        0.737249   -0.314295   -1.525732
     17          1           0        1.163551   -0.563092    1.471284
     18          1           0        0.224775    2.026590   -1.276860
     19          1           0        0.340218    1.792316    1.515292
     20          1           0        2.879165   -0.347424   -0.677106
     21          1           0        1.474651   -2.678646    0.869925
 ---------------------------------------------------------------------
                    Distance matrix (angstroms):
                    1          2          3          4          5
     1  C    0.000000
     2  C    1.533662   0.000000
     3  C    2.303857   2.227310   0.000000
     4  C    2.949373   2.510066   2.509053   0.000000
     5  C    3.170991   2.836431   1.540925   1.533473   0.000000
     6  C    2.598782   1.539409   2.830705   1.543237   2.540052
     7  O    2.304659   1.448358   1.422503   2.874062   2.398713
     8  O    1.441507   2.339888   1.424323   2.869402   2.451352
     9  O    3.809748   2.413201   3.548381   2.472751   3.137940
    10  O    4.335001   3.756168   3.768374   1.419709   2.443214
    11  O    3.999314   4.075450   2.476258   2.371934   1.424854
    12  H    1.094488   2.210777   3.090116   2.953853   3.569315
    13  H    1.094918   2.183838   2.997983   4.029887   4.129980
    14  H    2.213387   1.091001   3.175058   3.469924   3.863888
    15  H    3.167611   3.185140   1.093563   3.483734   2.206676
    16  H    2.668943   2.804459   2.803540   1.100240   2.127685
    17  H    3.996542   3.303085   2.149864   2.160703   1.098972
    18  H    2.954796   2.180893   3.779853   2.166435   3.470591
    19  H    3.866120   2.429182   3.138078   2.742681   2.896323
    20  H    4.782875   4.418874   3.985952   1.922824   2.522391
    21  H    4.686347   4.698000   2.815233   3.197373   1.960570
                    6          7          8          9         10
     6  C    0.000000
     7  O    2.400669   0.000000
     8  O    3.163064   2.273732   0.000000
     9  O    1.423060   2.792646   4.275297   0.000000
    10  O    2.424282   4.080610   4.252637   2.798487   0.000000
    11  O    3.744069   3.680841   2.972370   4.445670   2.898051
    12  H    2.748140   3.245808   2.085686   4.121729   4.202918
    13  H    3.509693   2.796926   2.076675   4.586376   5.414231
    14  H    2.178009   2.062180   3.257966   2.649866   4.579621
    15  H    3.876974   2.059760   2.061764   4.419611   4.622330
    16  H    2.151347   3.394174   2.608241   3.379652   2.068734
    17  H    2.880232   2.600370   3.370682   2.950748   2.627983
    18  H    1.095019   3.363273   3.805804   2.021110   2.745997
    19  H    1.935372   2.277010   4.115149   0.973372   3.220453
    20  H    3.247939   4.583537   4.441754   3.690799   0.972332
    21  H    4.470007   4.029427   3.522080   4.986703   3.613706
                   11         12         13         14         15
    11  O    0.000000
    12  H    4.195289   0.000000
    13  H    4.941577   1.784542   0.000000
    14  H    5.149820   2.831984   2.422506   0.000000
    15  H    2.782350   4.018028   3.632259   4.005490   0.000000
    16  H    2.494042   2.343489   3.749397   3.784842   3.777069
    17  H    2.083162   4.495784   4.890432   4.180365   2.542128
    18  H    4.501551   2.740126   3.789422   2.526799   4.858713
    19  H    4.276110   4.405059   4.571627   2.697483   3.841396
    20  H    2.468040   4.625257   5.875058   5.338419   4.707316
    21  H    0.970275   5.017425   5.544923   5.737626   2.757796
                   16         17         18         19         20
    16  H    0.000000
    17  H    3.037390   0.000000
    18  H    2.409213   3.891022   0.000000
    19  H    3.720655   2.495548   2.804340   0.000000
    20  H    2.304141   2.757793   3.611293   3.978863   0.000000
    21  H    3.445735   2.221257   5.320726   4.657568   3.130585
                   21
    21  H    0.000000
 Stoichiometry    C6H10O5
 Framework group  C1[X(C6H10O5)]
 Deg. of freedom    57
 Full point group                 C1      NOp   1
 Largest Abelian subgroup         C1      NOp   1
 Largest concise Abelian subgroup C1      NOp   1
                         Standard orientation:                         
 ---------------------------------------------------------------------
 Center     Atomic      Atomic             Coordinates (Angstroms)
 Number     Number       Type             X           Y           Z
 ---------------------------------------------------------------------
      1          6           0       -1.877716   -0.039025   -1.068086
      2          6           0       -1.291247    0.993550   -0.097538
      3          6           0       -0.795336   -1.020920    0.712951
      4          6           0        1.023003    0.142094   -0.566263
      5          6           0        0.728623   -0.899684    0.519821
      6          6           0        0.164738    1.410137   -0.373838
      7          8           0       -1.286467    0.243473    1.141455
      8          8           0       -1.455741   -1.302513   -0.517198
      9          8           0        0.622949    2.231635    0.694003
     10          8           0        2.398243    0.493548   -0.593986
     11          8           0        1.337786   -2.114736    0.092296
     12          1           0       -1.505091    0.064095   -2.092010
     13          1           0       -2.971849    0.001359   -1.077478
     14          1           0       -1.921580    1.872139    0.047534
     15          1           0       -1.067630   -1.781207    1.450311
     16          1           0        0.737249   -0.314295   -1.525732
     17          1           0        1.163551   -0.563092    1.471284
     18          1           0        0.224775    2.026590   -1.276860
     19          1           0        0.340218    1.792316    1.515292
     20          1           0        2.879165   -0.347424   -0.677106
     21          1           0        1.474651   -2.678646    0.869925
 ---------------------------------------------------------------------
 Rotational constants (GHZ):      1.4570460      1.2940885      0.8889303
 Standard basis: 6-31+G(d,p) (6D, 7F)
 There are   259 symmetry adapted basis functions of A   symmetry.
 Integral buffers will be    131072 words long.
 Raffenetti 2 integral format.
 Two-electron integral symmetry is turned on.
   259 basis functions,   422 primitive gaussians,   259 cartesian basis functions
    43 alpha electrons       43 beta electrons
       nuclear repulsion energy       726.9698543046 Hartrees.
 NAtoms=   21 NActive=   21 NUniq=   21 SFac= 1.00D+00 NAtFMM=   60 NAOKFM=F Big=F
 ------------------------------------------------------------------------------
 Polarizable Continuum Model (PCM)
 =================================
 Model                : C-PCM.
 Atomic radii         : SMD-Coulomb.
 Polarization charges : Total charges.
 Charge compensation  : None.
 Solution method      : Matrix inversion.
 Cavity type          : VdW (van der Waals Surface) (Alpha=1.000).
 Cavity algorithm     : GePol (No added spheres)
                        Default sphere list used, NSphG=   21.
                        Lebedev-Laikov grids with approx.  5.0 points / Ang**2.
                        Smoothing algorithm: Karplus/York (Gamma=1.0000).
                        Polarization charges: spherical gaussians, with
                                              point-specific exponents (IZeta= 3).
                        Self-potential: point-specific (ISelfS= 7).
                        Self-field    : sphere-specific E.n sum rule (ISelfD= 2).
 Solvent              : Water, Eps=  78.355300 Eps(inf)=   1.777849
 ------------------------------------------------------------------------------
 ------------------------------------------------------------------------------
 Atomic radii for non-electrostatic terms: SMD-CDS.
 ------------------------------------------------------------------------------
 Nuclear repulsion after PCM non-electrostatic terms =      726.9748748988 Hartrees.
 One-electron integrals computed using PRISM.
 NBasis=   259 RedAO= T  NBF=   259
 NBsUse=   259 1.00D-06 NBFU=   259
 Harris functional with IExCor=  402 diagonalized for initial guess.
 ExpMin= 4.38D-02 ExpMax= 5.48D+03 ExpMxC= 8.25D+02 IAcc=2 IRadAn=         4 AccDes= 0.00D+00
 HarFok:  IExCor=  402 AccDes= 0.00D+00 IRadAn=         4 IDoV= 1
 ScaDFX=  1.000000  1.000000  1.000000  1.000000
 FoFCou: FMM=F IPFlag=           0 FMFlag=      100000 FMFlg1=           0
         NFxFlg=           0 DoJE=T BraDBF=F KetDBF=T FulRan=T
         Omega=  0.000000  0.000000  1.000000  0.000000  0.000000 ICntrl=     500 IOpCl=  0
         NMat0=    1 NMatS0=    1 NMatT0=    0 NMatD0=    1 NMtDS0=    0 NMtDT0=    0
         I1Cent=           4 NGrid=           0.
 Petite list used in FoFCou.
 Initial guess orbital symmetries:
       Occupied  (A) (A) (A) (A) (A) (A) (A) (A) (A) (A) (A) (A)
                 (A) (A) (A) (A) (A) (A) (A) (A) (A) (A) (A) (A)
                 (A) (A) (A) (A) (A) (A) (A) (A) (A) (A) (A) (A)
                 (A) (A) (A) (A) (A) (A) (A)
       Virtual   (A) (A) (A) (A) (A) (A) (A) (A) (A) (A) (A) (A)
                 (A) (A) (A) (A) (A) (A) (A) (A) (A) (A) (A) (A)
                 (A) (A) (A) (A) (A) (A) (A) (A) (A) (A) (A) (A)
                 (A) (A) (A) (A) (A) (A) (A) (A) (A) (A) (A) (A)
                 (A) (A) (A) (A) (A) (A) (A) (A) (A) (A) (A) (A)
                 (A) (A) (A) (A) (A) (A) (A) (A) (A) (A) (A) (A)
                 (A) (A) (A) (A) (A) (A) (A) (A) (A) (A) (A) (A)
                 (A) (A) (A) (A) (A) (A) (A) (A) (A) (A) (A) (A)
                 (A) (A) (A) (A) (A) (A) (A) (A) (A) (A) (A) (A)
                 (A) (A) (A) (A) (A) (A) (A) (A) (A) (A) (A) (A)
                 (A) (A) (A) (A) (A) (A) (A) (A) (A) (A) (A) (A)
                 (A) (A) (A) (A) (A) (A) (A) (A) (A) (A) (A) (A)
                 (A) (A) (A) (A) (A) (A) (A) (A) (A) (A) (A) (A)
                 (A) (A) (A) (A) (A) (A) (A) (A) (A) (A) (A) (A)
                 (A) (A) (A) (A) (A) (A) (A) (A) (A) (A) (A) (A)
                 (A) (A) (A) (A) (A) (A) (A) (A) (A) (A) (A) (A)
                 (A) (A) (A) (A) (A) (A) (A) (A) (A) (A) (A) (A)
                 (A) (A) (A) (A) (A) (A) (A) (A) (A) (A) (A) (A)
 The electronic state of the initial guess is 1-A.
 Requested convergence on RMS density matrix=1.00D-08 within 128 cycles.
 Requested convergence on MAX density matrix=1.00D-06.
 Requested convergence on             energy=1.00D-06.
 No special actions if energy rises.
 Error on total polarization charges =  0.05768
 SCF Done:  E(RB3LYP) =  -610.810195870     A.U. after   12 cycles
             Convg  =    0.5066D-08             -V/T =  2.0090
 SMD-CDS (non-electrostatic) energy       (kcal/mol) =       3.15
 (included in total energy above)

 **********************************************************************

            Population analysis using the SCF density.

 **********************************************************************

 Orbital symmetries:
       Occupied  (A) (A) (A) (A) (A) (A) (A) (A) (A) (A) (A) (A)
                 (A) (A) (A) (A) (A) (A) (A) (A) (A) (A) (A) (A)
                 (A) (A) (A) (A) (A) (A) (A) (A) (A) (A) (A) (A)
                 (A) (A) (A) (A) (A) (A) (A)
       Virtual   (A) (A) (A) (A) (A) (A) (A) (A) (A) (A) (A) (A)
                 (A) (A) (A) (A) (A) (A) (A) (A) (A) (A) (A) (A)
                 (A) (A) (A) (A) (A) (A) (A) (A) (A) (A) (A) (A)
                 (A) (A) (A) (A) (A) (A) (A) (A) (A) (A) (A) (A)
                 (A) (A) (A) (A) (A) (A) (A) (A) (A) (A) (A) (A)
                 (A) (A) (A) (A) (A) (A) (A) (A) (A) (A) (A) (A)
                 (A) (A) (A) (A) (A) (A) (A) (A) (A) (A) (A) (A)
                 (A) (A) (A) (A) (A) (A) (A) (A) (A) (A) (A) (A)
                 (A) (A) (A) (A) (A) (A) (A) (A) (A) (A) (A) (A)
                 (A) (A) (A) (A) (A) (A) (A) (A) (A) (A) (A) (A)
                 (A) (A) (A) (A) (A) (A) (A) (A) (A) (A) (A) (A)
                 (A) (A) (A) (A) (A) (A) (A) (A) (A) (A) (A) (A)
                 (A) (A) (A) (A) (A) (A) (A) (A) (A) (A) (A) (A)
                 (A) (A) (A) (A) (A) (A) (A) (A) (A) (A) (A) (A)
                 (A) (A) (A) (A) (A) (A) (A) (A) (A) (A) (A) (A)
                 (A) (A) (A) (A) (A) (A) (A) (A) (A) (A) (A) (A)
                 (A) (A) (A) (A) (A) (A) (A) (A) (A) (A) (A) (A)
                 (A) (A) (A) (A) (A) (A) (A) (A) (A) (A) (A) (A)
 The electronic state is 1-A.
 Alpha  occ. eigenvalues --  -19.18703 -19.17672 -19.17345 -19.16903 -19.16888
 Alpha  occ. eigenvalues --  -10.29470 -10.25280 -10.24900 -10.24503 -10.24480
 Alpha  occ. eigenvalues --  -10.24226  -1.11267  -1.05165  -1.04084  -1.02498
 Alpha  occ. eigenvalues --   -1.01086  -0.79548  -0.78290  -0.68169  -0.65302
 Alpha  occ. eigenvalues --   -0.63020  -0.58199  -0.55413  -0.54472  -0.52549
 Alpha  occ. eigenvalues --   -0.49409  -0.48243  -0.47112  -0.45984  -0.44887
 Alpha  occ. eigenvalues --   -0.43006  -0.41968  -0.39842  -0.38672  -0.37207
 Alpha  occ. eigenvalues --   -0.36989  -0.35618  -0.34177  -0.31932  -0.30304
 Alpha  occ. eigenvalues --   -0.29298  -0.28218  -0.26323
 Alpha virt. eigenvalues --    0.00727   0.01388   0.02122   0.02463   0.03879
 Alpha virt. eigenvalues --    0.05003   0.05569   0.05648   0.06079   0.07956
 Alpha virt. eigenvalues --    0.08340   0.09905   0.10198   0.10628   0.11447
 Alpha virt. eigenvalues --    0.12385   0.12809   0.13555   0.13939   0.14544
 Alpha virt. eigenvalues --    0.15237   0.15943   0.16323   0.16659   0.17416
 Alpha virt. eigenvalues --    0.17775   0.18983   0.19788   0.19988   0.21175
 Alpha virt. eigenvalues --    0.21488   0.22160   0.22442   0.23190   0.23521
 Alpha virt. eigenvalues --    0.24177   0.24791   0.26054   0.26506   0.27214
 Alpha virt. eigenvalues --    0.27453   0.27759   0.28232   0.28827   0.29399
 Alpha virt. eigenvalues --    0.30626   0.31085   0.31844   0.32734   0.33445
 Alpha virt. eigenvalues --    0.34135   0.34923   0.35115   0.35451   0.36706
 Alpha virt. eigenvalues --    0.36804   0.37277   0.37768   0.38414   0.39312
 Alpha virt. eigenvalues --    0.39411   0.41141   0.43319   0.45346   0.46331
 Alpha virt. eigenvalues --    0.48245   0.63882   0.66015   0.66529   0.67084
 Alpha virt. eigenvalues --    0.69951   0.70984   0.74591   0.76007   0.76412
 Alpha virt. eigenvalues --    0.78645   0.80656   0.82693   0.84869   0.85345
 Alpha virt. eigenvalues --    0.86992   0.88489   0.94386   0.95432   0.97873
 Alpha virt. eigenvalues --    1.01772   1.03091   1.03625   1.04420   1.05537
 Alpha virt. eigenvalues --    1.08383   1.08730   1.11326   1.12108   1.12962
 Alpha virt. eigenvalues --    1.18703   1.19730   1.22716   1.24743   1.25776
 Alpha virt. eigenvalues --    1.26682   1.28298   1.29756   1.30524   1.31835
 Alpha virt. eigenvalues --    1.34315   1.35211   1.36708   1.38613   1.41012
 Alpha virt. eigenvalues --    1.41664   1.42862   1.45873   1.46921   1.52425
 Alpha virt. eigenvalues --    1.52941   1.54570   1.56025   1.59034   1.59217
 Alpha virt. eigenvalues --    1.60675   1.62765   1.64529   1.66686   1.67652
 Alpha virt. eigenvalues --    1.68901   1.71974   1.73614   1.74775   1.77835
 Alpha virt. eigenvalues --    1.81387   1.82533   1.84351   1.85011   1.87841
 Alpha virt. eigenvalues --    1.89279   1.91089   1.93556   1.96340   1.97459
 Alpha virt. eigenvalues --    2.00645   2.01824   2.05886   2.06585   2.08217
 Alpha virt. eigenvalues --    2.10176   2.12356   2.13637   2.16273   2.17497
 Alpha virt. eigenvalues --    2.19131   2.20280   2.21196   2.23778   2.27303
 Alpha virt. eigenvalues --    2.28600   2.34473   2.37977   2.40256   2.40707
 Alpha virt. eigenvalues --    2.43005   2.47410   2.48867   2.49127   2.51226
 Alpha virt. eigenvalues --    2.55800   2.56810   2.58284   2.61031   2.62677
 Alpha virt. eigenvalues --    2.64903   2.65757   2.68531   2.69455   2.70330
 Alpha virt. eigenvalues --    2.73200   2.74296   2.77218   2.77472   2.80196
 Alpha virt. eigenvalues --    2.82530   2.84725   2.87210   2.88938   2.89586
 Alpha virt. eigenvalues --    2.93944   2.95268   2.96747   2.98521   2.99250
 Alpha virt. eigenvalues --    3.05265   3.08707   3.11322   3.13198   3.23855
 Alpha virt. eigenvalues --    3.33925   3.39038   3.40721   3.45922   3.48770
 Alpha virt. eigenvalues --    3.50968   3.52374   3.53461   3.56908   3.58182
 Alpha virt. eigenvalues --    4.26194   4.33501   4.40062   4.44184   4.48112
 Alpha virt. eigenvalues --    4.57931   4.60726   4.73552   4.82250   4.88602
 Alpha virt. eigenvalues --    4.98633
          Condensed to atoms (all electrons):
              1          2          3          4          5          6
     1  C    5.557936  -0.229750  -0.327068  -0.135820   0.134705   0.085010
     2  C   -0.229750   6.765814  -0.527848   0.321643   0.246767  -0.741623
     3  C   -0.327068  -0.527848   6.924045   0.163719  -1.323837   0.297027
     4  C   -0.135820   0.321643   0.163719   5.964403  -0.207698  -0.208246
     5  C    0.134705   0.246767  -1.323837  -0.207698   7.057263  -0.410645
     6  C    0.085010  -0.741623   0.297027  -0.208246  -0.410645   6.401886
     7  O   -0.029481   0.079495   0.245533  -0.062739  -0.050125  -0.065142
     8  O    0.158975  -0.136960   0.332514  -0.000749  -0.186741   0.000460
     9  O    0.012193  -0.121363  -0.025082  -0.147129   0.053270   0.305643
    10  O   -0.004855   0.039224   0.036897   0.234502  -0.088853  -0.178688
    11  O    0.028898  -0.042571  -0.100255  -0.146642   0.216363   0.072045
    12  H    0.461915  -0.157131   0.011265  -0.039230   0.015847   0.065846
    13  H    0.410118  -0.008726  -0.018012   0.003159   0.002445  -0.010023
    14  H   -0.006177   0.315432   0.026635   0.004260  -0.012453   0.009802
    15  H    0.016593   0.021674   0.349236   0.013343  -0.007134  -0.019160
    16  H   -0.010950  -0.024017   0.021335   0.359102  -0.040101  -0.017123
    17  H    0.007248  -0.025894  -0.066358  -0.120899   0.466672   0.027194
    18  H    0.019619  -0.049796  -0.025737  -0.056620   0.055784   0.392247
    19  H    0.004845  -0.026776  -0.003981  -0.020724   0.021754   0.010492
    20  H    0.001726  -0.013047   0.016860   0.022543  -0.075135   0.046551
    21  H   -0.002589   0.006613  -0.041975   0.020354   0.036574  -0.010714
              7          8          9         10         11         12
     1  C   -0.029481   0.158975   0.012193  -0.004855   0.028898   0.461915
     2  C    0.079495  -0.136960  -0.121363   0.039224  -0.042571  -0.157131
     3  C    0.245533   0.332514  -0.025082   0.036897  -0.100255   0.011265
     4  C   -0.062739  -0.000749  -0.147129   0.234502  -0.146642  -0.039230
     5  C   -0.050125  -0.186741   0.053270  -0.088853   0.216363   0.015847
     6  C   -0.065142   0.000460   0.305643  -0.178688   0.072045   0.065846
     7  O    8.391907  -0.045923  -0.005839  -0.003236   0.007040   0.010499
     8  O   -0.045923   8.439190  -0.000094  -0.000916   0.013578  -0.044412
     9  O   -0.005839  -0.000094   8.310201   0.004209  -0.003021   0.000145
    10  O   -0.003236  -0.000916   0.004209   8.397417  -0.008576  -0.000241
    11  O    0.007040   0.013578  -0.003021  -0.008576   8.379715   0.000005
    12  H    0.010499  -0.044412   0.000145  -0.000241   0.000005   0.532981
    13  H   -0.001765  -0.050588  -0.000185   0.000034   0.000084  -0.039142
    14  H   -0.035816   0.007352   0.003235  -0.000416   0.000100   0.002226
    15  H   -0.042638  -0.046247   0.000086  -0.000602  -0.003966  -0.000271
    16  H    0.000864   0.005974   0.007380  -0.040353   0.001107   0.000996
    17  H    0.005767   0.009598   0.004388   0.005264  -0.044241  -0.000020
    18  H    0.008682   0.000186  -0.056773  -0.000919  -0.000696   0.000050
    19  H    0.024219  -0.000381   0.252455  -0.003119  -0.000142  -0.000012
    20  H   -0.000039   0.000019  -0.001861   0.236797   0.017217   0.000004
    21  H    0.000294  -0.000336   0.000134  -0.000389   0.245476  -0.000003
             13         14         15         16         17         18
     1  C    0.410118  -0.006177   0.016593  -0.010950   0.007248   0.019619
     2  C   -0.008726   0.315432   0.021674  -0.024017  -0.025894  -0.049796
     3  C   -0.018012   0.026635   0.349236   0.021335  -0.066358  -0.025737
     4  C    0.003159   0.004260   0.013343   0.359102  -0.120899  -0.056620
     5  C    0.002445  -0.012453  -0.007134  -0.040101   0.466672   0.055784
     6  C   -0.010023   0.009802  -0.019160  -0.017123   0.027194   0.392247
     7  O   -0.001765  -0.035816  -0.042638   0.000864   0.005767   0.008682
     8  O   -0.050588   0.007352  -0.046247   0.005974   0.009598   0.000186
     9  O   -0.000185   0.003235   0.000086   0.007380   0.004388  -0.056773
    10  O    0.000034  -0.000416  -0.000602  -0.040353   0.005264  -0.000919
    11  O    0.000084   0.000100  -0.003966   0.001107  -0.044241  -0.000696
    12  H   -0.039142   0.002226  -0.000271   0.000996  -0.000020   0.000050
    13  H    0.547121  -0.003879   0.000288   0.000151   0.000022   0.000007
    14  H   -0.003879   0.512474  -0.000054  -0.000076  -0.000018  -0.002432
    15  H    0.000288  -0.000054   0.546410  -0.000253  -0.002597   0.000022
    16  H    0.000151  -0.000076  -0.000253   0.565551   0.004820  -0.005040
    17  H    0.000022  -0.000018  -0.002597   0.004820   0.557590  -0.000139
    18  H    0.000007  -0.002432   0.000022  -0.005040  -0.000139   0.542285
    19  H   -0.000007  -0.001156   0.000078  -0.000136  -0.000942   0.006111
    20  H    0.000000   0.000004  -0.000002  -0.006188  -0.001310  -0.000118
    21  H    0.000000   0.000000   0.002023   0.000142  -0.006867   0.000004
             19         20         21
     1  C    0.004845   0.001726  -0.002589
     2  C   -0.026776  -0.013047   0.006613
     3  C   -0.003981   0.016860  -0.041975
     4  C   -0.020724   0.022543   0.020354
     5  C    0.021754  -0.075135   0.036574
     6  C    0.010492   0.046551  -0.010714
     7  O    0.024219  -0.000039   0.000294
     8  O   -0.000381   0.000019  -0.000336
     9  O    0.252455  -0.001861   0.000134
    10  O   -0.003119   0.236797  -0.000389
    11  O   -0.000142   0.017217   0.245476
    12  H   -0.000012   0.000004  -0.000003
    13  H   -0.000007   0.000000   0.000000
    14  H   -0.001156   0.000004   0.000000
    15  H    0.000078  -0.000002   0.002023
    16  H   -0.000136  -0.006188   0.000142
    17  H   -0.000942  -0.001310  -0.006867
    18  H    0.006111  -0.000118   0.000004
    19  H    0.336127   0.000005   0.000003
    20  H    0.000005   0.348653  -0.000892
    21  H    0.000003  -0.000892   0.334179
 Mulliken atomic charges:
              1
     1  C   -0.153089
     2  C    0.308840
     3  C    0.035086
     4  C    0.039470
     5  C    0.095280
     6  C   -0.052837
     7  O   -0.431556
     8  O   -0.454499
     9  O   -0.591991
    10  O   -0.623181
    11  O   -0.631516
    12  H    0.178684
    13  H    0.168897
    14  H    0.180958
    15  H    0.173173
    16  H    0.176816
    17  H    0.180724
    18  H    0.173274
    19  H    0.401288
    20  H    0.408212
    21  H    0.417969
 Sum of Mulliken atomic charges =   0.00000
 Mulliken charges with hydrogens summed into heavy atoms:
              1
     1  C    0.194491
     2  C    0.489798
     3  C    0.208259
     4  C    0.216286
     5  C    0.276004
     6  C    0.120437
     7  O   -0.431556
     8  O   -0.454499
     9  O   -0.190703
    10  O   -0.214969
    11  O   -0.213548
 Sum of Mulliken charges with hydrogens summed into heavy atoms =   0.00000
 Electronic spatial extent (au):  <R**2>=           1432.6856
 Charge=              0.0000 electrons
 Dipole moment (field-independent basis, Debye):
    X=             -1.9440    Y=             -2.1296    Z=              0.8581  Tot=              3.0084
 Quadrupole moment (field-independent basis, Debye-Ang):
   XX=            -67.3512   YY=            -71.7504   ZZ=            -58.7193
   XY=            -13.4915   XZ=              5.6442   YZ=            -10.0162
 Traceless Quadrupole moment (field-independent basis, Debye-Ang):
   XX=             -1.4109   YY=             -5.8101   ZZ=              7.2210
   XY=            -13.4915   XZ=              5.6442   YZ=            -10.0162
 Octapole moment (field-independent basis, Debye-Ang**2):
  XXX=             -3.4705  YYY=            -28.4951  ZZZ=              4.6902  XYY=             -4.4602
  XXY=            -13.5136  XXZ=             -3.1597  XZZ=              5.2444  YZZ=             -4.1089
  YYZ=             16.7484  XYZ=             -0.2868
 Hexadecapole moment (field-independent basis, Debye-Ang**3):
 XXXX=           -759.7924 YYYY=           -718.4463 ZZZZ=           -264.3485 XXXY=            -70.2803
 XXXZ=             13.2467 YYYX=            -60.1662 YYYZ=            -67.1322 ZZZX=             15.2561
 ZZZY=              0.4202 XXYY=           -257.7248 XXZZ=           -178.9453 YYZZ=           -139.2876
 XXYZ=             -8.9243 YYXZ=              6.8935 ZZXY=             -7.7334
 N-N= 7.269748748988D+02 E-N=-2.883936204147D+03  KE= 6.053421023394D+02

 Test job not archived.
 1\1\GINC-COMPUTE-10-3\SP\RB3LYP\6-31+G(d,p)\C6H10O5\ASAROTTI.IQUIR\15-
 Apr-2019\0\\# B3LYP/6-31+G** test scrf=(pcm,solvent=water,smd,dovacuum
 )\\comment\\0,1\C,0,-1.877716,-0.039025,-1.068086\C,0,-1.291247,0.9935
 5,-0.097538\C,0,-0.795336,-1.02092,0.712951\C,0,1.023003,0.142094,-0.5
 66263\C,0,0.728623,-0.899684,0.519821\C,0,0.164738,1.410137,-0.373838\
 O,0,-1.286467,0.243473,1.141455\O,0,-1.455741,-1.302513,-0.517198\O,0,
 0.622949,2.231635,0.694003\O,0,2.398243,0.493548,-0.593986\O,0,1.33778
 6,-2.114736,0.092296\H,0,-1.505091,0.064095,-2.09201\H,0,-2.971849,0.0
 01359,-1.077478\H,0,-1.92158,1.872139,0.047534\H,0,-1.06763,-1.781207,
 1.450311\H,0,0.737249,-0.314295,-1.525732\H,0,1.163551,-0.563092,1.471
 284\H,0,0.224775,2.02659,-1.27686\H,0,0.340218,1.792316,1.515292\H,0,2
 .879165,-0.347424,-0.677106\H,0,1.474651,-2.678646,0.869925\\Version=E
 M64L-G09RevC.01\State=1-A\HF=-610.8101959\RMSD=5.066e-09\Dipole=-0.764
 8355,-0.8378537,0.3375893\Quadrupole=-1.0489908,-4.3196357,5.3686265,-
 10.0305811,4.1962912,-7.4467827\PG=C01 [X(C6H10O5)]\\@


 A MUSTACHE HAIR ACROSS A CHIP IS LIKE A REDWOOD
 TREE FALLING THROUGH A HOUSING PROJECT.
 - AN IBM MANAGER IN EAST FISHKILL, NEW YORK
   AS QUOTED IN "FROM SANDS TO CIRCUITS", IBM INNOVATION JANUARY 1985.
 Job cpu time:  0 days  0 hours  8 minutes  1.2 seconds.
 File lengths (MBytes):  RWF=     56 Int=      0 D2E=      0 Chk=      4 Scr=      1
 Normal termination of Gaussian 09 at Mon Apr 15 19:08:06 2019.
