 Entering Gaussian System, Link 0=g09
 Input=/home/mmarcarino.iquir/NMR/08_SRR_Levo07_OPTB_nmr.gjc
 Output=/home/mmarcarino.iquir/NMR/08_SRR_Levo07_OPTB_nmr.log
 Initial command:
 /share/apps/Gaussian09/EM64T.SSE4.2-enabled/g09/l1.exe /tmp/Gau-36147.inp -scrdir=/tmp/
 Entering Link 1 = /share/apps/Gaussian09/EM64T.SSE4.2-enabled/g09/l1.exe PID=     36148.
  
 Copyright (c) 1988,1990,1992,1993,1995,1998,2003,2009,2011,
            Gaussian, Inc.  All Rights Reserved.
  
 This is part of the Gaussian(R) 09 program.  It is based on
 the Gaussian(R) 03 system (copyright 2003, Gaussian, Inc.),
 the Gaussian(R) 98 system (copyright 1998, Gaussian, Inc.),
 the Gaussian(R) 94 system (copyright 1995, Gaussian, Inc.),
 the Gaussian 92(TM) system (copyright 1992, Gaussian, Inc.),
 the Gaussian 90(TM) system (copyright 1990, Gaussian, Inc.),
 the Gaussian 88(TM) system (copyright 1988, Gaussian, Inc.),
 the Gaussian 86(TM) system (copyright 1986, Carnegie Mellon
 University), and the Gaussian 82(TM) system (copyright 1983,
 Carnegie Mellon University). Gaussian is a federally registered
 trademark of Gaussian, Inc.
  
 This software contains proprietary and confidential information,
 including trade secrets, belonging to Gaussian, Inc.
  
 This software is provided under written license and may be
 used, copied, transmitted, or stored only in accord with that
 written license.
  
 The following legend is applicable only to US Government
 contracts under FAR:
  
                    RESTRICTED RIGHTS LEGEND
  
 Use, reproduction and disclosure by the US Government is
 subject to restrictions as set forth in subparagraphs (a)
 and (c) of the Commercial Computer Software - Restricted
 Rights clause in FAR 52.227-19.
  
 Gaussian, Inc.
 340 Quinnipiac St., Bldg. 40, Wallingford CT 06492
  
  
 ---------------------------------------------------------------
 Warning -- This program may not be used in any manner that
 competes with the business of Gaussian, Inc. or will provide
 assistance to any competitor of Gaussian, Inc.  The licensee
 of this program is prohibited from giving any competitor of
 Gaussian, Inc. access to this program.  By using this program,
 the user acknowledges that Gaussian, Inc. is engaged in the
 business of creating and licensing software in the field of
 computational chemistry and represents and warrants to the
 licensee that it is not a competitor of Gaussian, Inc. and that
 it will not use this program in any manner prohibited above.
 ---------------------------------------------------------------
  

 Cite this work as:
 Gaussian 09, Revision C.01,
 M. J. Frisch, G. W. Trucks, H. B. Schlegel, G. E. Scuseria, 
 M. A. Robb, J. R. Cheeseman, G. Scalmani, V. Barone, B. Mennucci, 
 G. A. Petersson, H. Nakatsuji, M. Caricato, X. Li, H. P. Hratchian, 
 A. F. Izmaylov, J. Bloino, G. Zheng, J. L. Sonnenberg, M. Hada, 
 M. Ehara, K. Toyota, R. Fukuda, J. Hasegawa, M. Ishida, T. Nakajima, 
 Y. Honda, O. Kitao, H. Nakai, T. Vreven, J. A. Montgomery, Jr., 
 J. E. Peralta, F. Ogliaro, M. Bearpark, J. J. Heyd, E. Brothers, 
 K. N. Kudin, V. N. Staroverov, T. Keith, R. Kobayashi, J. Normand, 
 K. Raghavachari, A. Rendell, J. C. Burant, S. S. Iyengar, J. Tomasi, 
 M. Cossi, N. Rega, J. M. Millam, M. Klene, J. E. Knox, J. B. Cross, 
 V. Bakken, C. Adamo, J. Jaramillo, R. Gomperts, R. E. Stratmann, 
 O. Yazyev, A. J. Austin, R. Cammi, C. Pomelli, J. W. Ochterski, 
 R. L. Martin, K. Morokuma, V. G. Zakrzewski, G. A. Voth, 
 P. Salvador, J. J. Dannenberg, S. Dapprich, A. D. Daniels, 
 O. Farkas, J. B. Foresman, J. V. Ortiz, J. Cioslowski, 
 and D. J. Fox, Gaussian, Inc., Wallingford CT, 2010.
 
 ******************************************
 Gaussian 09:  EM64L-G09RevC.01 23-Sep-2011
                12-Apr-2019 
 ******************************************
 %nprocshared=4
 Will use up to    4 processors via shared memory.
 ------------------------------------------------
 # mpw1pw91/6-31+g** nmr scrf=(pcm,solvent=water)
 ------------------------------------------------
 1/38=1/1;
 2/12=2,17=6,18=5,40=1/2;
 3/5=1,6=6,7=111,11=2,16=1,25=1,30=1,70=2201,72=1,74=-7/1,2,8,3;
 4//1;
 5/5=2,38=5,53=1/2;
 8/6=1,10=90,11=11/1;
 10/13=100,45=16/2;
 6/7=2,8=2,9=2,10=2,28=1/1;
 99/9=1/99;
 -------
 comment
 -------
 Charge =  0 Multiplicity = 1
 Symbolic Z-Matrix:
 6                    -1.83817   0.12109  -1.08416 
 6                    -1.16011   1.12865  -0.14517 
 6                    -0.896    -0.88826   0.76335 
 6                     1.05191   0.01786  -0.54625 
 6                     0.62366  -0.97114   0.55482 
 6                     0.33642   1.37914  -0.40356 
 8                    -1.25081   0.43542   1.12414 
 8                    -1.56686  -1.15751  -0.47012 
 8                     0.8624    2.17669   0.65004 
 8                     2.45736   0.21467  -0.55695 
 8                     1.04553  -2.29496   0.24282 
 1                    -1.43991   0.13733  -2.10307 
 1                    -2.92095   0.27618  -1.11783 
 1                    -1.69905   2.07211  -0.04799 
 1                    -1.2517   -1.58393   1.5272 
 1                     0.73271  -0.41453  -1.50789 
 1                     1.12328  -0.71175   1.49404 
 1                     0.47925   1.95784  -1.32221 
 1                     0.5172    1.79755   1.47747 
 1                     2.84943  -0.6725   -0.62453 
 1                     0.52252  -2.57678  -0.52891 
 
                          Input orientation:                          
 ---------------------------------------------------------------------
 Center     Atomic      Atomic             Coordinates (Angstroms)
 Number     Number       Type             X           Y           Z
 ---------------------------------------------------------------------
      1          6           0       -1.838166    0.121087   -1.084160
      2          6           0       -1.160112    1.128648   -0.145167
      3          6           0       -0.896002   -0.888263    0.763352
      4          6           0        1.051906    0.017864   -0.546247
      5          6           0        0.623659   -0.971143    0.554816
      6          6           0        0.336415    1.379140   -0.403559
      7          8           0       -1.250809    0.435424    1.124145
      8          8           0       -1.566857   -1.157511   -0.470117
      9          8           0        0.862404    2.176687    0.650039
     10          8           0        2.457355    0.214669   -0.556945
     11          8           0        1.045534   -2.294961    0.242819
     12          1           0       -1.439910    0.137327   -2.103074
     13          1           0       -2.920950    0.276178   -1.117831
     14          1           0       -1.699052    2.072105   -0.047986
     15          1           0       -1.251700   -1.583929    1.527202
     16          1           0        0.732712   -0.414525   -1.507894
     17          1           0        1.123281   -0.711746    1.494040
     18          1           0        0.479247    1.957844   -1.322209
     19          1           0        0.517201    1.797553    1.477465
     20          1           0        2.849431   -0.672503   -0.624531
     21          1           0        0.522517   -2.576775   -0.528914
 ---------------------------------------------------------------------
                    Distance matrix (angstroms):
                    1          2          3          4          5
     1  C    0.000000
     2  C    1.535137   0.000000
     3  C    2.306461   2.227800   0.000000
     4  C    2.941517   2.507535   2.516041   0.000000
     5  C    3.152743   2.842699   1.536140   1.540737   0.000000
     6  C    2.602829   1.539190   2.832252   1.544461   2.554373
     7  O    2.306601   1.449116   1.417112   2.875250   2.411679
     8  O    1.444116   2.344687   1.429681   2.871449   2.425609
     9  O    3.811301   2.412739   3.535357   2.475384   3.158307
    10  O    4.328766   3.753796   3.768905   1.419202   2.450429
    11  O    3.989221   4.091027   2.453429   2.443732   1.424014
    12  H    1.094101   2.212330   3.092583   2.940600   3.542796
    13  H    1.094353   2.184795   2.999198   4.022067   4.113127
    14  H    2.213477   1.090877   3.172844   3.469285   3.875528
    15  H    3.173363   3.187990   1.092675   3.488772   2.199548
    16  H    2.660046   2.796639   2.834730   1.101640   2.139273
    17  H    4.013838   3.359752   2.154662   2.167994   1.095012
    18  H    2.966605   2.181855   3.786978   2.166467   3.481816
    19  H    3.862669   2.427704   3.117805   2.747474   2.920324
    20  H    4.776464   4.421580   4.000130   1.927130   2.536554
    21  H    3.627614   4.087623   2.556016   2.648151   1.939782
                    6          7          8          9         10
     6  C    0.000000
     7  O    2.396614   0.000000
     8  O    3.171982   2.275742   0.000000
     9  O    1.422257   2.778928   4.274685   0.000000
    10  O    2.424439   4.077411   4.252611   2.801820   0.000000
    11  O    3.797324   3.674905   2.937117   4.493885   2.988495
    12  H    2.754230   3.246469   2.087886   4.127865   4.193468
    13  H    3.512426   2.800212   2.075708   4.588144   5.407822
    14  H    2.179394   2.062411   3.259768   2.656922   4.580920
    15  H    3.876819   2.059185   2.066504   4.402395   4.619060
    16  H    2.143325   3.403586   2.630024   3.374592   2.067506
    17  H    2.931185   2.662541   3.360575   3.020503   2.616207
    18  H    1.095088   3.360879   3.823354   2.021006   2.745396
    19  H    1.935460   2.259666   4.107162   0.973417   3.226227
    20  H    3.251664   4.593184   4.445523   3.700093   0.972299
    21  H    3.962274   3.866605   2.526510   4.909262   3.396549
                   11         12         13         14         15
    11  O    0.000000
    12  H    4.194839   0.000000
    13  H    4.918853   1.784226   0.000000
    14  H    5.166100   2.834415   2.421354   0.000000
    15  H    2.726259   4.022070   3.639037   4.005986   0.000000
    16  H    2.588222   2.319281   3.738779   3.772020   3.810145
    17  H    2.019448   4.497789   4.914638   4.253614   2.530284
    18  H    4.566875   2.758115   3.798830   2.526200   4.864101
    19  H    4.307222   4.405326   4.568482   2.704470   3.816530
    20  H    2.576569   4.608727   5.868615   5.343592   4.720162
    21  H    0.973929   3.700736   4.510391   5.174818   2.891574
                   16         17         18         19         20
    16  H    0.000000
    17  H    3.041791   0.000000
    18  H    2.393085   3.933542   0.000000
    19  H    3.721841   2.581509   2.804516   0.000000
    20  H    2.308112   2.733034   3.608774   3.994854   0.000000
    21  H    2.382836   2.816308   4.603690   4.812518   3.008309
                   21
    21  H    0.000000
 Stoichiometry    C6H10O5
 Framework group  C1[X(C6H10O5)]
 Deg. of freedom    57
 Full point group                 C1      NOp   1
 Largest Abelian subgroup         C1      NOp   1
 Largest concise Abelian subgroup C1      NOp   1
                         Standard orientation:                         
 ---------------------------------------------------------------------
 Center     Atomic      Atomic             Coordinates (Angstroms)
 Number     Number       Type             X           Y           Z
 ---------------------------------------------------------------------
      1          6           0       -1.838166   -0.121089    1.084160
      2          6           0       -1.160111   -1.128649    0.145167
      3          6           0       -0.896003    0.888262   -0.763352
      4          6           0        1.051906   -0.017863    0.546247
      5          6           0        0.623658    0.971144   -0.554816
      6          6           0        0.336416   -1.379140    0.403559
      7          8           0       -1.250808   -0.435425   -1.124145
      8          8           0       -1.566858    1.157509    0.470117
      9          8           0        0.862406   -2.176686   -0.650039
     10          8           0        2.457355   -0.214667    0.556945
     11          8           0        1.045532    2.294962   -0.242819
     12          1           0       -1.439910   -0.137329    2.103074
     13          1           0       -2.920950   -0.276181    1.117831
     14          1           0       -1.699050   -2.072107    0.047986
     15          1           0       -1.251701    1.583928   -1.527202
     16          1           0        0.732712    0.414526    1.507894
     17          1           0        1.123280    0.711747   -1.494040
     18          1           0        0.479249   -1.957844    1.322209
     19          1           0        0.517203   -1.797553   -1.477465
     20          1           0        2.849430    0.672506    0.624531
     21          1           0        0.522515    2.576775    0.528914
 ---------------------------------------------------------------------
 Rotational constants (GHZ):      1.4452957      1.3069338      0.8895943
 Standard basis: 6-31+G(d,p) (6D, 7F)
 There are   259 symmetry adapted basis functions of A   symmetry.
 Integral buffers will be    131072 words long.
 Raffenetti 2 integral format.
 Two-electron integral symmetry is turned on.
   259 basis functions,   422 primitive gaussians,   259 cartesian basis functions
    43 alpha electrons       43 beta electrons
       nuclear repulsion energy       727.4674311073 Hartrees.
 NAtoms=   21 NActive=   21 NUniq=   21 SFac= 1.00D+00 NAtFMM=   60 NAOKFM=F Big=F
 ------------------------------------------------------------------------------
 Polarizable Continuum Model (PCM)
 =================================
 Model                : PCM.
 Atomic radii         : UFF (Universal Force Field).
 Polarization charges : Total charges.
 Charge compensation  : None.
 Solution method      : Matrix inversion.
 Cavity type          : Scaled VdW (van der Waals Surface) (Alpha=1.100).
 Cavity algorithm     : GePol (No added spheres)
                        Default sphere list used, NSphG=   21.
                        Lebedev-Laikov grids with approx.  5.0 points / Ang**2.
                        Smoothing algorithm: Karplus/York (Gamma=1.0000).
                        Polarization charges: spherical gaussians, with
                                              point-specific exponents (IZeta= 3).
                        Self-potential: point-specific (ISelfS= 7).
                        Self-field    : sphere-specific E.n sum rule (ISelfD= 2).
 Solvent              : Water, Eps=  78.355300 Eps(inf)=   1.777849
 ------------------------------------------------------------------------------
 One-electron integrals computed using PRISM.
 NBasis=   259 RedAO= T  NBF=   259
 NBsUse=   259 1.00D-06 NBFU=   259
 Harris functional with IExCor=  908 diagonalized for initial guess.
 ExpMin= 4.38D-02 ExpMax= 5.48D+03 ExpMxC= 8.25D+02 IAcc=2 IRadAn=         4 AccDes= 0.00D+00
 HarFok:  IExCor=  908 AccDes= 0.00D+00 IRadAn=         4 IDoV= 1
 ScaDFX=  1.000000  1.000000  1.000000  1.000000
 FoFCou: FMM=F IPFlag=           0 FMFlag=      100000 FMFlg1=           0
         NFxFlg=           0 DoJE=T BraDBF=F KetDBF=T FulRan=T
         Omega=  0.000000  0.000000  1.000000  0.000000  0.000000 ICntrl=     500 IOpCl=  0
         NMat0=    1 NMatS0=    1 NMatT0=    0 NMatD0=    1 NMtDS0=    0 NMtDT0=    0
         I1Cent=           4 NGrid=           0.
 Petite list used in FoFCou.
 Initial guess orbital symmetries:
       Occupied  (A) (A) (A) (A) (A) (A) (A) (A) (A) (A) (A) (A)
                 (A) (A) (A) (A) (A) (A) (A) (A) (A) (A) (A) (A)
                 (A) (A) (A) (A) (A) (A) (A) (A) (A) (A) (A) (A)
                 (A) (A) (A) (A) (A) (A) (A)
       Virtual   (A) (A) (A) (A) (A) (A) (A) (A) (A) (A) (A) (A)
                 (A) (A) (A) (A) (A) (A) (A) (A) (A) (A) (A) (A)
                 (A) (A) (A) (A) (A) (A) (A) (A) (A) (A) (A) (A)
                 (A) (A) (A) (A) (A) (A) (A) (A) (A) (A) (A) (A)
                 (A) (A) (A) (A) (A) (A) (A) (A) (A) (A) (A) (A)
                 (A) (A) (A) (A) (A) (A) (A) (A) (A) (A) (A) (A)
                 (A) (A) (A) (A) (A) (A) (A) (A) (A) (A) (A) (A)
                 (A) (A) (A) (A) (A) (A) (A) (A) (A) (A) (A) (A)
                 (A) (A) (A) (A) (A) (A) (A) (A) (A) (A) (A) (A)
                 (A) (A) (A) (A) (A) (A) (A) (A) (A) (A) (A) (A)
                 (A) (A) (A) (A) (A) (A) (A) (A) (A) (A) (A) (A)
                 (A) (A) (A) (A) (A) (A) (A) (A) (A) (A) (A) (A)
                 (A) (A) (A) (A) (A) (A) (A) (A) (A) (A) (A) (A)
                 (A) (A) (A) (A) (A) (A) (A) (A) (A) (A) (A) (A)
                 (A) (A) (A) (A) (A) (A) (A) (A) (A) (A) (A) (A)
                 (A) (A) (A) (A) (A) (A) (A) (A) (A) (A) (A) (A)
                 (A) (A) (A) (A) (A) (A) (A) (A) (A) (A) (A) (A)
                 (A) (A) (A) (A) (A) (A) (A) (A) (A) (A) (A) (A)
 The electronic state of the initial guess is 1-A.
 Requested convergence on RMS density matrix=1.00D-08 within 128 cycles.
 Requested convergence on MAX density matrix=1.00D-06.
 Requested convergence on             energy=1.00D-06.
 No special actions if energy rises.
 Error on total polarization charges =  0.01153
 SCF Done:  E(RmPW1PW91) =  -610.650691176     A.U. after   12 cycles
             Convg  =    0.5183D-08             -V/T =  2.0090
 Range of M.O.s used for correlation:     1   259
 NBasis=   259 NAE=    43 NBE=    43 NFC=     0 NFV=     0
 NROrb=    259 NOA=    43 NOB=    43 NVA=   216 NVB=   216

 **** Warning!!: The largest alpha MO coefficient is  0.55390679D+02

 NEqPCM:  Using equilibrium solvation (IEInf=0, Eps=  78.3553, EpsInf=   1.7778)
          Differentiating once with respect to magnetic field using GIAOs.
          Electric field/nuclear overlap derivatives assumed to be zero.
 FoFCou: FMM=F IPFlag=           0 FMFlag=    10101102 FMFlg1=           0
         NFxFlg=    40000000 DoJE=F BraDBF=F KetDBF=T FulRan=T
         Omega=  0.000000  0.000000  1.000000  0.000000  0.000000 ICntrl=    6100 IOpCl=  0
         NMat0=    1 NMatS0=    1 NMatT0=    0 NMatD0=    1 NMtDS0=    0 NMtDT0=    0
         I1Cent=           7 NGrid=        1528.
 Symmetry not used in FoFCou.
          There are     3 degrees of freedom in the 1st order CPHF.  IDoFFX=0.
      3 vectors produced by pass  0 Test12= 3.10D-13 3.33D-08 XBig12= 2.05D+01 1.24D+00.
 AX will form     3 AO Fock derivatives at one time.
      3 vectors produced by pass  1 Test12= 3.10D-13 3.33D-08 XBig12= 4.69D-02 2.86D-02.
      3 vectors produced by pass  2 Test12= 3.10D-13 3.33D-08 XBig12= 9.94D-05 1.67D-03.
      3 vectors produced by pass  3 Test12= 3.10D-13 3.33D-08 XBig12= 4.47D-07 1.58D-04.
      3 vectors produced by pass  4 Test12= 3.10D-13 3.33D-08 XBig12= 1.44D-09 7.00D-06.
      3 vectors produced by pass  5 Test12= 3.10D-13 3.33D-08 XBig12= 4.83D-12 4.20D-07.
 Inverted reduced A of dimension    18 with in-core refinement.
 Calculating GIAO nuclear magnetic shielding tensors.
 SCF GIAO Magnetic shielding tensor (ppm):
      1  C    Isotropic =   129.4475   Anisotropy =    62.7790
   XX=   107.9404   YX=     8.7838   ZX=   -14.1710
   XY=     7.5121   YY=   160.4974   ZY=   -16.9690
   XZ=    -8.5195   YZ=   -24.0012   ZZ=   119.9047
   Eigenvalues:   100.7837   116.2586   171.3002
      2  C    Isotropic =   115.4257   Anisotropy =    47.7574
   XX=   100.6060   YX=   -14.4945   ZX=    -6.7106
   XY=    -8.9502   YY=   109.8269   ZY=   -11.9477
   XZ=     3.0284   YZ=   -28.5445   ZZ=   135.8441
   Eigenvalues:    88.3535   110.6595   147.2639
      3  C    Isotropic =    93.3339   Anisotropy =    26.1430
   XX=    85.3534   YX=    16.2148   ZX=   -17.2721
   XY=     3.3310   YY=   102.1211   ZY=    15.7209
   XZ=   -11.8991   YZ=     9.3780   ZZ=    92.5271
   Eigenvalues:    67.0498   102.1893   110.7626
      4  C    Isotropic =   122.2198   Anisotropy =    29.2796
   XX=   139.1157   YX=   -12.5036   ZX=     4.5172
   XY=    -3.0904   YY=   118.0948   ZY=    -3.8676
   XZ=    -3.4992   YZ=    -0.9281   ZZ=   109.4489
   Eigenvalues:   108.7412   116.1786   141.7395
      5  C    Isotropic =   119.6027   Anisotropy =    23.7613
   XX=   118.9755   YX=     9.6056   ZX=     6.5875
   XY=    -0.0201   YY=   131.5600   ZY=    -2.4432
   XZ=     8.7216   YZ=    13.3196   ZZ=   108.2726
   Eigenvalues:   104.0137   119.3509   135.4436
      6  C    Isotropic =   123.9451   Anisotropy =    39.6904
   XX=   122.2727   YX=    -9.2984   ZX=   -17.8349
   XY=    -1.6655   YY=   119.9526   ZY=    14.7771
   XZ=    -9.0664   YZ=    21.0705   ZZ=   129.6100
   Eigenvalues:   105.0105   116.4195   150.4054
      7  O    Isotropic =   240.3453   Anisotropy =    66.9835
   XX=   203.4342   YX=    44.5089   ZX=   -30.7753
   XY=    19.9005   YY=   272.0682   ZY=    17.7468
   XZ=   -44.2681   YZ=     7.4873   ZZ=   245.5334
   Eigenvalues:   169.9918   266.0430   285.0009
      8  O    Isotropic =   273.9862   Anisotropy =    96.0844
   XX=   211.0166   YX=    -0.5827   ZX=   -58.6421
   XY=     8.0749   YY=   312.2743   ZY=     8.0793
   XZ=   -52.9331   YZ=    34.2817   ZZ=   298.6676
   Eigenvalues:   182.6482   301.2679   338.0424
      9  O    Isotropic =   303.6847   Anisotropy =    30.6078
   XX=   287.6762   YX=    -6.9756   ZX=    24.1487
   XY=   -16.3599   YY=   306.7543   ZY=     0.5169
   XZ=     6.9253   YZ=     2.6927   ZZ=   316.6235
   Eigenvalues:   276.6184   310.3457   324.0899
     10  O    Isotropic =   306.9586   Anisotropy =    39.7917
   XX=   318.7583   YX=    15.0122   ZX=     3.7132
   XY=    16.2919   YY=   311.9691   ZY=   -12.1771
   XZ=   -12.2540   YZ=    -7.4230   ZZ=   290.1484
   Eigenvalues:   286.2831   301.1062   333.4864
     11  O    Isotropic =   301.5187   Anisotropy =    54.5820
   XX=   273.8321   YX=   -12.0825   ZX=   -22.1079
   XY=     0.1081   YY=   315.6804   ZY=    11.0360
   XZ=   -23.2328   YZ=    20.5928   ZZ=   315.0437
   Eigenvalues:   263.7842   302.8652   337.9067
     12  H    Isotropic =    27.7445   Anisotropy =     7.3645
   XX=    25.6128   YX=     0.4230   ZX=    -0.8323
   XY=    -0.5116   YY=    25.5887   ZY=    -2.6394
   XZ=    -1.7271   YZ=    -0.6950   ZZ=    32.0320
   Eigenvalues:    24.9327    25.6467    32.6542
     13  H    Isotropic =    27.6051   Anisotropy =    11.4241
   XX=    32.7067   YX=     1.9001   ZX=    -4.1718
   XY=     3.4626   YY=    26.3934   ZY=    -1.4884
   XZ=    -3.6781   YZ=    -1.4731   ZZ=    23.7152
   Eigenvalues:    22.1855    25.4087    35.2212
     14  H    Isotropic =    26.9902   Anisotropy =     8.5305
   XX=    26.9363   YX=     3.8151   ZX=    -0.2192
   XY=     3.1084   YY=    30.1205   ZY=    -0.7327
   XZ=    -1.2615   YZ=    -2.4083   ZZ=    23.9140
   Eigenvalues:    23.5348    24.7587    32.6773
     15  H    Isotropic =    26.1875   Anisotropy =     7.6416
   XX=    23.9476   YX=    -1.1435   ZX=     1.1529
   XY=    -0.9835   YY=    26.4592   ZY=    -3.3583
   XZ=     1.6290   YZ=    -3.5494   ZZ=    28.1557
   Eigenvalues:    23.5277    23.7529    31.2819
     16  H    Isotropic =    28.0560   Anisotropy =     5.1299
   XX=    31.3684   YX=    -1.1541   ZX=    -0.8394
   XY=    -0.3192   YY=    24.5735   ZY=     1.3227
   XZ=     0.6478   YZ=     2.2115   ZZ=    28.2262
   Eigenvalues:    23.8030    28.8891    31.4760
     17  H    Isotropic =    28.1658   Anisotropy =     2.8485
   XX=    26.2637   YX=     1.3994   ZX=    -1.3644
   XY=     1.6418   YY=    28.9852   ZY=     0.9462
   XZ=    -2.1481   YZ=     0.3629   ZZ=    29.2484
   Eigenvalues:    24.7974    29.6351    30.0648
     18  H    Isotropic =    27.6546   Anisotropy =     6.7174
   XX=    24.1701   YX=    -0.3540   ZX=    -0.9213
   XY=    -1.3706   YY=    28.0637   ZY=    -1.8049
   XZ=     0.5928   YZ=    -2.9484   ZZ=    30.7298
   Eigenvalues:    23.9117    26.9191    32.1328
     19  H    Isotropic =    29.5248   Anisotropy =    14.5178
   XX=    24.7360   YX=    -5.5973   ZX=     2.7602
   XY=    -4.3331   YY=    26.0187   ZY=    -2.2142
   XZ=     3.3568   YZ=    -1.5043   ZZ=    37.8198
   Eigenvalues:    20.3010    29.0701    39.2034
     20  H    Isotropic =    29.2147   Anisotropy =    18.2519
   XX=    32.2326   YX=     7.1495   ZX=     2.5224
   XY=     6.2194   YY=    36.0952   ZY=     1.4282
   XZ=     3.6018   YZ=    -0.0704   ZZ=    19.3161
   Eigenvalues:    18.5819    27.6794    41.3826
     21  H    Isotropic =    30.1683   Anisotropy =    15.5809
   XX=    28.0110   YX=    -0.2107   ZX=    -6.2888
   XY=    -0.7835   YY=    30.1986   ZY=     6.6798
   XZ=    -6.6690   YZ=     7.0613   ZZ=    32.2952
   Eigenvalues:    21.3558    28.5935    40.5555
 End of Minotr Frequency-dependent properties file   721 does not exist.
 End of Minotr Frequency-dependent properties file   722 does not exist.

 **********************************************************************

            Population analysis using the SCF density.

 **********************************************************************

 Orbital symmetries:
       Occupied  (A) (A) (A) (A) (A) (A) (A) (A) (A) (A) (A) (A)
                 (A) (A) (A) (A) (A) (A) (A) (A) (A) (A) (A) (A)
                 (A) (A) (A) (A) (A) (A) (A) (A) (A) (A) (A) (A)
                 (A) (A) (A) (A) (A) (A) (A)
       Virtual   (A) (A) (A) (A) (A) (A) (A) (A) (A) (A) (A) (A)
                 (A) (A) (A) (A) (A) (A) (A) (A) (A) (A) (A) (A)
                 (A) (A) (A) (A) (A) (A) (A) (A) (A) (A) (A) (A)
                 (A) (A) (A) (A) (A) (A) (A) (A) (A) (A) (A) (A)
                 (A) (A) (A) (A) (A) (A) (A) (A) (A) (A) (A) (A)
                 (A) (A) (A) (A) (A) (A) (A) (A) (A) (A) (A) (A)
                 (A) (A) (A) (A) (A) (A) (A) (A) (A) (A) (A) (A)
                 (A) (A) (A) (A) (A) (A) (A) (A) (A) (A) (A) (A)
                 (A) (A) (A) (A) (A) (A) (A) (A) (A) (A) (A) (A)
                 (A) (A) (A) (A) (A) (A) (A) (A) (A) (A) (A) (A)
                 (A) (A) (A) (A) (A) (A) (A) (A) (A) (A) (A) (A)
                 (A) (A) (A) (A) (A) (A) (A) (A) (A) (A) (A) (A)
                 (A) (A) (A) (A) (A) (A) (A) (A) (A) (A) (A) (A)
                 (A) (A) (A) (A) (A) (A) (A) (A) (A) (A) (A) (A)
                 (A) (A) (A) (A) (A) (A) (A) (A) (A) (A) (A) (A)
                 (A) (A) (A) (A) (A) (A) (A) (A) (A) (A) (A) (A)
                 (A) (A) (A) (A) (A) (A) (A) (A) (A) (A) (A) (A)
                 (A) (A) (A) (A) (A) (A) (A) (A) (A) (A) (A) (A)
 The electronic state is 1-A.
 Alpha  occ. eigenvalues --  -19.28661 -19.27587 -19.27006 -19.26232 -19.26212
 Alpha  occ. eigenvalues --  -10.36379 -10.32390 -10.31815 -10.31445 -10.31360
 Alpha  occ. eigenvalues --  -10.31335  -1.14936  -1.08365  -1.07469  -1.05702
 Alpha  occ. eigenvalues --   -1.04387  -0.82847  -0.81129  -0.71178  -0.68236
 Alpha  occ. eigenvalues --   -0.65595  -0.61728  -0.58101  -0.55137  -0.54379
 Alpha  occ. eigenvalues --   -0.53269  -0.51198  -0.48690  -0.47583  -0.46454
 Alpha  occ. eigenvalues --   -0.44891  -0.43756  -0.42502  -0.40562  -0.39081
 Alpha  occ. eigenvalues --   -0.38727  -0.37517  -0.35611  -0.34788  -0.31841
 Alpha  occ. eigenvalues --   -0.30726  -0.29761  -0.27862
 Alpha virt. eigenvalues --    0.00698   0.01309   0.02050   0.02230   0.03993
 Alpha virt. eigenvalues --    0.04766   0.05088   0.05489   0.05770   0.07778
 Alpha virt. eigenvalues --    0.08514   0.09582   0.10082   0.10470   0.11179
 Alpha virt. eigenvalues --    0.11923   0.12275   0.13378   0.13811   0.14344
 Alpha virt. eigenvalues --    0.14945   0.15393   0.15824   0.16725   0.16987
 Alpha virt. eigenvalues --    0.17768   0.19015   0.19807   0.20386   0.20524
 Alpha virt. eigenvalues --    0.21770   0.21904   0.22138   0.23139   0.23953
 Alpha virt. eigenvalues --    0.24144   0.25192   0.25375   0.26989   0.27545
 Alpha virt. eigenvalues --    0.28116   0.28328   0.28938   0.30037   0.30475
 Alpha virt. eigenvalues --    0.31445   0.31692   0.32305   0.32836   0.33767
 Alpha virt. eigenvalues --    0.34595   0.34804   0.35612   0.36607   0.36962
 Alpha virt. eigenvalues --    0.37594   0.37701   0.38673   0.39200   0.39702
 Alpha virt. eigenvalues --    0.39929   0.43065   0.43565   0.45015   0.46517
 Alpha virt. eigenvalues --    0.48717   0.64064   0.66497   0.66879   0.67917
 Alpha virt. eigenvalues --    0.69887   0.72246   0.75252   0.76275   0.77430
 Alpha virt. eigenvalues --    0.79594   0.81883   0.84731   0.84986   0.86682
 Alpha virt. eigenvalues --    0.87506   0.89172   0.95318   0.96952   0.98683
 Alpha virt. eigenvalues --    1.02144   1.03302   1.04865   1.05013   1.06920
 Alpha virt. eigenvalues --    1.08781   1.09627   1.10919   1.13785   1.14137
 Alpha virt. eigenvalues --    1.19882   1.20457   1.23065   1.25612   1.27093
 Alpha virt. eigenvalues --    1.28396   1.28718   1.31111   1.32223   1.34246
 Alpha virt. eigenvalues --    1.36370   1.36689   1.38712   1.40421   1.41411
 Alpha virt. eigenvalues --    1.43248   1.43853   1.45889   1.48028   1.51631
 Alpha virt. eigenvalues --    1.52832   1.54284   1.55743   1.56447   1.59912
 Alpha virt. eigenvalues --    1.61872   1.63262   1.64153   1.65293   1.68778
 Alpha virt. eigenvalues --    1.70178   1.73726   1.75060   1.76711   1.78769
 Alpha virt. eigenvalues --    1.81642   1.83782   1.85592   1.86031   1.87458
 Alpha virt. eigenvalues --    1.89262   1.91383   1.93499   1.97620   1.98651
 Alpha virt. eigenvalues --    2.01210   2.02663   2.05466   2.07250   2.08204
 Alpha virt. eigenvalues --    2.10704   2.11772   2.14634   2.16924   2.18388
 Alpha virt. eigenvalues --    2.20317   2.21616   2.21898   2.26351   2.27355
 Alpha virt. eigenvalues --    2.28337   2.35952   2.38828   2.41178   2.42990
 Alpha virt. eigenvalues --    2.45113   2.46065   2.48825   2.49935   2.52658
 Alpha virt. eigenvalues --    2.54905   2.56091   2.57764   2.59934   2.62052
 Alpha virt. eigenvalues --    2.64713   2.65910   2.67348   2.69736   2.70630
 Alpha virt. eigenvalues --    2.73744   2.76584   2.77423   2.78782   2.80646
 Alpha virt. eigenvalues --    2.82179   2.85674   2.87739   2.88146   2.90704
 Alpha virt. eigenvalues --    2.95376   2.96273   2.97433   2.98477   3.03179
 Alpha virt. eigenvalues --    3.05332   3.09238   3.11947   3.13395   3.24204
 Alpha virt. eigenvalues --    3.34879   3.40775   3.41678   3.46952   3.50218
 Alpha virt. eigenvalues --    3.52004   3.53029   3.55796   3.59524   3.60828
 Alpha virt. eigenvalues --    4.28201   4.33937   4.41756   4.45926   4.49779
 Alpha virt. eigenvalues --    4.59960   4.62202   4.74747   4.85016   4.91817
 Alpha virt. eigenvalues --    4.96934
          Condensed to atoms (all electrons):
              1          2          3          4          5          6
     1  C    5.721214  -0.368563  -0.294675  -0.133790   0.103411   0.066231
     2  C   -0.368563   6.899381  -0.530578   0.460120   0.219670  -0.885838
     3  C   -0.294675  -0.530578   7.307966   0.146464  -1.677721   0.384124
     4  C   -0.133790   0.460120   0.146464   6.097259  -0.224198  -0.482368
     5  C    0.103411   0.219670  -1.677721  -0.224198   7.551328  -0.437587
     6  C    0.066231  -0.885838   0.384124  -0.482368  -0.437587   6.864822
     7  O   -0.015622   0.122926   0.244192  -0.068765  -0.038579  -0.107476
     8  O    0.174118  -0.121433   0.309619   0.026283  -0.191430  -0.007311
     9  O    0.014977  -0.127219  -0.034507  -0.137819   0.048349   0.358455
    10  O   -0.003632   0.043560   0.059529   0.262847  -0.113464  -0.178523
    11  O    0.031739  -0.039691  -0.032861  -0.105388   0.203559   0.044520
    12  H    0.454992  -0.152017   0.015476  -0.043852   0.016562   0.068894
    13  H    0.385233   0.003697  -0.013661   0.006958   0.001899  -0.001232
    14  H    0.018408   0.283367   0.010446   0.002695  -0.003050   0.033228
    15  H    0.014907   0.030888   0.313965   0.023550   0.016131  -0.024634
    16  H   -0.010962  -0.022977  -0.003154   0.341969  -0.001410  -0.004151
    17  H    0.000366  -0.017036  -0.062082  -0.092803   0.449884   0.035751
    18  H    0.026992  -0.024053  -0.037906  -0.026512   0.068267   0.324974
    19  H    0.008002  -0.025318  -0.008203  -0.020056   0.033190  -0.003911
    20  H    0.001750  -0.016175   0.022114   0.019711  -0.076440   0.048102
    21  H    0.003585  -0.005753  -0.049382  -0.054670   0.074291   0.012184
              7          8          9         10         11         12
     1  C   -0.015622   0.174118   0.014977  -0.003632   0.031739   0.454992
     2  C    0.122926  -0.121433  -0.127219   0.043560  -0.039691  -0.152017
     3  C    0.244192   0.309619  -0.034507   0.059529  -0.032861   0.015476
     4  C   -0.068765   0.026283  -0.137819   0.262847  -0.105388  -0.043852
     5  C   -0.038579  -0.191430   0.048349  -0.113464   0.203559   0.016562
     6  C   -0.107476  -0.007311   0.358455  -0.178523   0.044520   0.068894
     7  O    8.303153  -0.037824  -0.006109  -0.004368   0.007476   0.011794
     8  O   -0.037824   8.356612   0.000050  -0.000581  -0.004808  -0.048675
     9  O   -0.006109   0.000050   8.194075  -0.004995  -0.003359  -0.000013
    10  O   -0.004368  -0.000581  -0.004995   8.303686  -0.010595  -0.000187
    11  O    0.007476  -0.004808  -0.003359  -0.010595   8.242674   0.000625
    12  H    0.011794  -0.048675  -0.000013  -0.000187   0.000625   0.522232
    13  H   -0.005141  -0.046413  -0.000274   0.000016  -0.000212  -0.035432
    14  H   -0.036453   0.007253   0.001341  -0.000395   0.000074   0.001950
    15  H   -0.043661  -0.043352  -0.000038  -0.000664  -0.000426  -0.000240
    16  H    0.000209   0.007592   0.007830  -0.044273  -0.011431   0.001324
    17  H    0.001705   0.011000   0.003917  -0.000442  -0.055836  -0.000023
    18  H    0.010650  -0.000552  -0.051248  -0.002437  -0.000648   0.000069
    19  H    0.028089  -0.000664   0.252744  -0.003506  -0.000059  -0.000011
    20  H   -0.000052  -0.000052  -0.001599   0.233192   0.016397   0.000004
    21  H    0.000024   0.019783   0.000196  -0.000613   0.246390  -0.000113
             13         14         15         16         17         18
     1  C    0.385233   0.018408   0.014907  -0.010962   0.000366   0.026992
     2  C    0.003697   0.283367   0.030888  -0.022977  -0.017036  -0.024053
     3  C   -0.013661   0.010446   0.313965  -0.003154  -0.062082  -0.037906
     4  C    0.006958   0.002695   0.023550   0.341969  -0.092803  -0.026512
     5  C    0.001899  -0.003050   0.016131  -0.001410   0.449884   0.068267
     6  C   -0.001232   0.033228  -0.024634  -0.004151   0.035751   0.324974
     7  O   -0.005141  -0.036453  -0.043661   0.000209   0.001705   0.010650
     8  O   -0.046413   0.007253  -0.043352   0.007592   0.011000  -0.000552
     9  O   -0.000274   0.001341  -0.000038   0.007830   0.003917  -0.051248
    10  O    0.000016  -0.000395  -0.000664  -0.044273  -0.000442  -0.002437
    11  O   -0.000212   0.000074  -0.000426  -0.011431  -0.055836  -0.000648
    12  H   -0.035432   0.001950  -0.000240   0.001324  -0.000023   0.000069
    13  H    0.521666  -0.003175   0.000270   0.000146   0.000020  -0.000030
    14  H   -0.003175   0.486900   0.000008  -0.000089  -0.000019  -0.002155
    15  H    0.000270   0.000008   0.522276  -0.000304  -0.002889   0.000022
    16  H    0.000146  -0.000089  -0.000304   0.564729   0.004164  -0.005166
    17  H    0.000020  -0.000019  -0.002889   0.004164   0.521927  -0.000202
    18  H   -0.000030  -0.002155   0.000022  -0.005166  -0.000202   0.526985
    19  H   -0.000007  -0.000825   0.000074  -0.000184  -0.001476   0.006227
    20  H    0.000000   0.000004   0.000001  -0.005980  -0.000934  -0.000143
    21  H    0.000024   0.000000  -0.000407   0.004270   0.006750  -0.000011
             19         20         21
     1  C    0.008002   0.001750   0.003585
     2  C   -0.025318  -0.016175  -0.005753
     3  C   -0.008203   0.022114  -0.049382
     4  C   -0.020056   0.019711  -0.054670
     5  C    0.033190  -0.076440   0.074291
     6  C   -0.003911   0.048102   0.012184
     7  O    0.028089  -0.000052   0.000024
     8  O   -0.000664  -0.000052   0.019783
     9  O    0.252744  -0.001599   0.000196
    10  O   -0.003506   0.233192  -0.000613
    11  O   -0.000059   0.016397   0.246390
    12  H   -0.000011   0.000004  -0.000113
    13  H   -0.000007   0.000000   0.000024
    14  H   -0.000825   0.000004   0.000000
    15  H    0.000074   0.000001  -0.000407
    16  H   -0.000184  -0.005980   0.004270
    17  H   -0.001476  -0.000934   0.006750
    18  H    0.006227  -0.000143  -0.000011
    19  H    0.356609   0.000002  -0.000006
    20  H    0.000002   0.374239  -0.000366
    21  H   -0.000006  -0.000366   0.363840
 Mulliken atomic charges:
              1
     1  C   -0.198680
     2  C    0.273041
     3  C   -0.069166
     4  C    0.002365
     5  C   -0.022661
     6  C   -0.108253
     7  O   -0.366168
     8  O   -0.409215
     9  O   -0.514755
    10  O   -0.534155
    11  O   -0.528140
    12  H    0.186641
    13  H    0.185649
    14  H    0.200487
    15  H    0.194524
    16  H    0.177850
    17  H    0.198260
    18  H    0.186877
    19  H    0.379291
    20  H    0.386224
    21  H    0.379984
 Sum of Mulliken atomic charges =   0.00000
 Mulliken charges with hydrogens summed into heavy atoms:
              1
     1  C    0.173610
     2  C    0.473528
     3  C    0.125358
     4  C    0.180215
     5  C    0.175600
     6  C    0.078624
     7  O   -0.366168
     8  O   -0.409215
     9  O   -0.135464
    10  O   -0.147931
    11  O   -0.148156
 Sum of Mulliken charges with hydrogens summed into heavy atoms =   0.00000
 Electronic spatial extent (au):  <R**2>=           1428.7909
 Charge=              0.0000 electrons
 Dipole moment (field-independent basis, Debye):
    X=             -3.1433    Y=              0.9905    Z=              2.3188  Tot=              4.0297
 Quadrupole moment (field-independent basis, Debye-Ang):
   XX=            -70.2910   YY=            -71.6887   ZZ=            -59.0363
   XY=              8.4514   XZ=             -1.5314   YZ=             -0.5092
 Traceless Quadrupole moment (field-independent basis, Debye-Ang):
   XX=             -3.2857   YY=             -4.6834   ZZ=              7.9691
   XY=              8.4514   XZ=             -1.5314   YZ=             -0.5092
 Octapole moment (field-independent basis, Debye-Ang**2):
  XXX=             -9.0856  YYY=              9.5174  ZZZ=             -2.0965  XYY=            -16.0870
  XXY=              7.4803  XXZ=              6.2985  XZZ=              2.0267  YZZ=              1.0963
  YYZ=             11.0148  XYZ=             10.0751
 Hexadecapole moment (field-independent basis, Debye-Ang**3):
 XXXX=           -763.7285 YYYY=           -745.3486 ZZZZ=           -261.5954 XXXY=             60.6619
 XXXZ=             -6.7870 YYYX=             12.9442 YYYZ=             18.1237 ZZZX=            -10.1470
 ZZZY=              9.1652 XXYY=           -268.0328 XXZZ=           -176.8175 YYZZ=           -147.4026
 XXYZ=              1.2013 YYXZ=             22.7633 ZZXY=             -2.9183
 N-N= 7.274674311073D+02 E-N=-2.884400683261D+03  KE= 6.052059287160D+02
 1\1\GINC-COMPUTE-8-11\SP\RmPW1PW91\6-31+G(d,p)\C6H10O5\MMARCARINO.IQUI
 R\12-Apr-2019\0\\# mpw1pw91/6-31+g** nmr scrf=(pcm,solvent=water)\\com
 ment\\0,1\C,0,-1.838166,0.121087,-1.08416\C,0,-1.160112,1.128648,-0.14
 5167\C,0,-0.896002,-0.888263,0.763352\C,0,1.051906,0.017864,-0.546247\
 C,0,0.623659,-0.971143,0.554816\C,0,0.336415,1.37914,-0.403559\O,0,-1.
 250809,0.435424,1.124145\O,0,-1.566857,-1.157511,-0.470117\O,0,0.86240
 4,2.176687,0.650039\O,0,2.457355,0.214669,-0.556945\O,0,1.045534,-2.29
 4961,0.242819\H,0,-1.43991,0.137327,-2.103074\H,0,-2.92095,0.276178,-1
 .117831\H,0,-1.699052,2.072105,-0.047986\H,0,-1.2517,-1.583929,1.52720
 2\H,0,0.732712,-0.414525,-1.507894\H,0,1.123281,-0.711746,1.49404\H,0,
 0.479247,1.957844,-1.322209\H,0,0.517201,1.797553,1.477465\H,0,2.84943
 1,-0.672503,-0.624531\H,0,0.522517,-2.576775,-0.528914\\Version=EM64L-
 G09RevC.01\State=1-A\HF=-610.6506912\RMSD=5.183e-09\Dipole=-1.2366784,
 -0.3896755,-0.9122685\Quadrupole=-2.4427943,-3.4820067,5.924801,-6.283
 4291,1.138557,-0.3785566\PG=C01 [X(C6H10O5)]\\@


 I LOVE MANKIND - IT'S PEOPLE I CAN'T STAND.
     -- LINUS OF PEANUTS
 Job cpu time:  0 days  0 hours 21 minutes 23.9 seconds.
 File lengths (MBytes):  RWF=     83 Int=      0 D2E=      0 Chk=      5 Scr=      1
 Normal termination of Gaussian 09 at Fri Apr 12 12:37:20 2019.
