 Entering Gaussian System, Link 0=g09
 Input=/home/mmarcarino.iquir/NMR/08_SRR_Levo17_OPTB_nmr.gjc
 Output=/home/mmarcarino.iquir/NMR/08_SRR_Levo17_OPTB_nmr.log
 Initial command:
 /share/apps/Gaussian09/EM64T.SSE4.2-enabled/g09/l1.exe /tmp/Gau-9345.inp -scrdir=/tmp/
 Entering Link 1 = /share/apps/Gaussian09/EM64T.SSE4.2-enabled/g09/l1.exe PID=      9346.
  
 Copyright (c) 1988,1990,1992,1993,1995,1998,2003,2009,2011,
            Gaussian, Inc.  All Rights Reserved.
  
 This is part of the Gaussian(R) 09 program.  It is based on
 the Gaussian(R) 03 system (copyright 2003, Gaussian, Inc.),
 the Gaussian(R) 98 system (copyright 1998, Gaussian, Inc.),
 the Gaussian(R) 94 system (copyright 1995, Gaussian, Inc.),
 the Gaussian 92(TM) system (copyright 1992, Gaussian, Inc.),
 the Gaussian 90(TM) system (copyright 1990, Gaussian, Inc.),
 the Gaussian 88(TM) system (copyright 1988, Gaussian, Inc.),
 the Gaussian 86(TM) system (copyright 1986, Carnegie Mellon
 University), and the Gaussian 82(TM) system (copyright 1983,
 Carnegie Mellon University). Gaussian is a federally registered
 trademark of Gaussian, Inc.
  
 This software contains proprietary and confidential information,
 including trade secrets, belonging to Gaussian, Inc.
  
 This software is provided under written license and may be
 used, copied, transmitted, or stored only in accord with that
 written license.
  
 The following legend is applicable only to US Government
 contracts under FAR:
  
                    RESTRICTED RIGHTS LEGEND
  
 Use, reproduction and disclosure by the US Government is
 subject to restrictions as set forth in subparagraphs (a)
 and (c) of the Commercial Computer Software - Restricted
 Rights clause in FAR 52.227-19.
  
 Gaussian, Inc.
 340 Quinnipiac St., Bldg. 40, Wallingford CT 06492
  
  
 ---------------------------------------------------------------
 Warning -- This program may not be used in any manner that
 competes with the business of Gaussian, Inc. or will provide
 assistance to any competitor of Gaussian, Inc.  The licensee
 of this program is prohibited from giving any competitor of
 Gaussian, Inc. access to this program.  By using this program,
 the user acknowledges that Gaussian, Inc. is engaged in the
 business of creating and licensing software in the field of
 computational chemistry and represents and warrants to the
 licensee that it is not a competitor of Gaussian, Inc. and that
 it will not use this program in any manner prohibited above.
 ---------------------------------------------------------------
  

 Cite this work as:
 Gaussian 09, Revision C.01,
 M. J. Frisch, G. W. Trucks, H. B. Schlegel, G. E. Scuseria, 
 M. A. Robb, J. R. Cheeseman, G. Scalmani, V. Barone, B. Mennucci, 
 G. A. Petersson, H. Nakatsuji, M. Caricato, X. Li, H. P. Hratchian, 
 A. F. Izmaylov, J. Bloino, G. Zheng, J. L. Sonnenberg, M. Hada, 
 M. Ehara, K. Toyota, R. Fukuda, J. Hasegawa, M. Ishida, T. Nakajima, 
 Y. Honda, O. Kitao, H. Nakai, T. Vreven, J. A. Montgomery, Jr., 
 J. E. Peralta, F. Ogliaro, M. Bearpark, J. J. Heyd, E. Brothers, 
 K. N. Kudin, V. N. Staroverov, T. Keith, R. Kobayashi, J. Normand, 
 K. Raghavachari, A. Rendell, J. C. Burant, S. S. Iyengar, J. Tomasi, 
 M. Cossi, N. Rega, J. M. Millam, M. Klene, J. E. Knox, J. B. Cross, 
 V. Bakken, C. Adamo, J. Jaramillo, R. Gomperts, R. E. Stratmann, 
 O. Yazyev, A. J. Austin, R. Cammi, C. Pomelli, J. W. Ochterski, 
 R. L. Martin, K. Morokuma, V. G. Zakrzewski, G. A. Voth, 
 P. Salvador, J. J. Dannenberg, S. Dapprich, A. D. Daniels, 
 O. Farkas, J. B. Foresman, J. V. Ortiz, J. Cioslowski, 
 and D. J. Fox, Gaussian, Inc., Wallingford CT, 2010.
 
 ******************************************
 Gaussian 09:  EM64L-G09RevC.01 23-Sep-2011
                12-Apr-2019 
 ******************************************
 %nprocshared=4
 Will use up to    4 processors via shared memory.
 ------------------------------------------------
 # mpw1pw91/6-31+g** nmr scrf=(pcm,solvent=water)
 ------------------------------------------------
 1/38=1/1;
 2/12=2,17=6,18=5,40=1/2;
 3/5=1,6=6,7=111,11=2,16=1,25=1,30=1,70=2201,72=1,74=-7/1,2,8,3;
 4//1;
 5/5=2,38=5,53=1/2;
 8/6=1,10=90,11=11/1;
 10/13=100,45=16/2;
 6/7=2,8=2,9=2,10=2,28=1/1;
 99/9=1/99;
 -------
 comment
 -------
 Charge =  0 Multiplicity = 1
 Symbolic Z-Matrix:
 6                     1.294    -1.63745  -0.49677 
 6                    -0.08227  -1.39597   0.13401 
 6                     1.25388   0.24995   0.81333 
 6                    -0.96656   0.94304  -0.21587 
 6                     0.47205   1.40337   0.11277 
 6                    -1.02398  -0.51349  -0.73399 
 8                     0.30417  -0.67404   1.33813 
 8                     2.05765  -0.49037  -0.08642 
 8                    -2.3658   -0.97568  -0.71029 
 8                    -1.81218   1.04931   0.9393 
 8                     1.19354   1.7987   -1.04426 
 1                     1.26518  -1.69261  -1.58889 
 1                     1.76536  -2.54329  -0.1004 
 1                    -0.59304  -2.30896   0.44178 
 1                     1.87979   0.61271   1.63105 
 1                    -1.40364   1.61583  -0.95952 
 1                     0.38238   2.23505   0.82512 
 1                    -0.69623  -0.54868  -1.77809 
 1                    -2.76897  -0.51542   0.05173 
 1                    -1.3646    0.53211   1.63539 
 1                     0.83198   2.65306  -1.33068 
 
                          Input orientation:                          
 ---------------------------------------------------------------------
 Center     Atomic      Atomic             Coordinates (Angstroms)
 Number     Number       Type             X           Y           Z
 ---------------------------------------------------------------------
      1          6           0        1.293998   -1.637446   -0.496772
      2          6           0       -0.082272   -1.395967    0.134006
      3          6           0        1.253883    0.249948    0.813333
      4          6           0       -0.966560    0.943042   -0.215871
      5          6           0        0.472053    1.403373    0.112767
      6          6           0       -1.023983   -0.513491   -0.733990
      7          8           0        0.304174   -0.674036    1.338127
      8          8           0        2.057647   -0.490366   -0.086417
      9          8           0       -2.365799   -0.975684   -0.710290
     10          8           0       -1.812182    1.049314    0.939301
     11          8           0        1.193543    1.798702   -1.044263
     12          1           0        1.265180   -1.692609   -1.588894
     13          1           0        1.765356   -2.543294   -0.100401
     14          1           0       -0.593037   -2.308960    0.441778
     15          1           0        1.879794    0.612713    1.631046
     16          1           0       -1.403637    1.615832   -0.959520
     17          1           0        0.382384    2.235046    0.825122
     18          1           0       -0.696234   -0.548678   -1.778087
     19          1           0       -2.768973   -0.515418    0.051733
     20          1           0       -1.364602    0.532111    1.635392
     21          1           0        0.831983    2.653063   -1.330683
 ---------------------------------------------------------------------
                    Distance matrix (angstroms):
                    1          2          3          4          5
     1  C    0.000000
     2  C    1.533073   0.000000
     3  C    2.297877   2.226170   0.000000
     4  C    3.442085   2.524944   2.543621   0.000000
     5  C    3.208381   2.853775   1.559628   1.545806   0.000000
     6  C    2.587003   1.555314   2.857573   1.547008   2.574779
     7  O    2.296686   1.456170   1.425167   2.577715   2.417709
     8  O    1.437826   2.334085   1.415504   3.349216   2.477908
     9  O    3.725270   2.470621   4.114085   2.425661   3.793513
    10  O    4.350786   3.101691   3.171058   1.435546   2.454841
    11  O    3.480941   3.636197   2.419286   2.466664   1.419701
    12  H    1.093894   2.207263   3.089393   3.716519   3.620746
    13  H    1.095376   2.187472   2.983071   4.430715   4.158636
    14  H    2.211947   1.090486   3.177606   3.338793   3.876091
    15  H    3.151822   3.182079   1.091796   3.409098   2.216314
    16  H    4.251492   3.465940   3.474343   1.093936   2.170979
    17  H    4.192212   3.725292   2.168009   2.138362   1.098713
    18  H    2.605419   2.179667   3.340092   2.176884   2.958163
    19  H    4.250593   2.828515   4.165236   2.333969   3.766926
    20  H    4.039957   2.759713   2.758960   1.937647   2.539840
    21  H    4.395149   4.401797   3.248040   2.720613   1.942890
                    6          7          8          9         10
     6  C    0.000000
     7  O    2.466464   0.000000
     8  O    3.149020   2.266656   0.000000
     9  O    1.419385   3.378722   4.493509   0.000000
    10  O    2.421471   2.758253   4.289323   2.669880   0.000000
    11  O    3.218684   3.546998   2.627542   4.525226   3.678382
    12  H    2.713199   3.244761   2.081064   3.803937   4.835294
    13  H    3.507413   2.774624   2.073679   4.460472   5.175576
    14  H    2.189030   2.069156   3.257668   2.499514   3.607194
    15  H    3.910710   2.055262   2.048925   5.101952   3.781510
    16  H    2.174630   3.665964   4.144740   2.775577   2.023209
    17  H    3.458779   2.955004   3.326452   4.496531   2.497022
    18  H    1.094895   3.275259   3.232493   2.027307   3.344117
    19  H    1.913728   3.335296   4.828662   0.977278   2.037551
    20  H    2.612140   2.080377   3.965082   2.962780   0.975894
    21  H    3.718564   4.297757   3.596053   4.876321   3.836202
                   11         12         13         14         15
    11  O    0.000000
    12  H    3.534262   0.000000
    13  H    4.480042   1.785904   0.000000
    14  H    4.719436   2.820725   2.431232   0.000000
    15  H    3.005793   4.007527   3.601581   4.008170   0.000000
    16  H    2.604989   4.297031   5.298956   4.245551   4.300953
    17  H    2.083981   4.693962   5.059816   4.663302   2.350258
    18  H    3.101604   2.278490   3.585045   2.834968   4.427972
    19  H    4.717827   4.511300   4.969463   2.846687   5.037653
    20  H    3.915215   4.718173   4.718870   3.176745   3.245400
    21  H    0.970925   4.374837   5.420969   5.458385   3.746035
                   16         17         18         19         20
    16  H    0.000000
    17  H    2.599662   0.000000
    18  H    2.419829   3.960964   0.000000
    19  H    2.725619   4.253732   2.765067   0.000000
    20  H    2.812391   2.570697   3.642343   2.361684   0.000000
    21  H    2.492310   2.241511   3.575858   4.991716   4.256880
                   21
    21  H    0.000000
 Stoichiometry    C6H10O5
 Framework group  C1[X(C6H10O5)]
 Deg. of freedom    57
 Full point group                 C1      NOp   1
 Largest Abelian subgroup         C1      NOp   1
 Largest concise Abelian subgroup C1      NOp   1
                         Standard orientation:                         
 ---------------------------------------------------------------------
 Center     Atomic      Atomic             Coordinates (Angstroms)
 Number     Number       Type             X           Y           Z
 ---------------------------------------------------------------------
      1          6           0        1.293998   -1.637446   -0.496772
      2          6           0       -0.082272   -1.395967    0.134006
      3          6           0        1.253883    0.249948    0.813333
      4          6           0       -0.966560    0.943042   -0.215871
      5          6           0        0.472053    1.403373    0.112767
      6          6           0       -1.023983   -0.513491   -0.733990
      7          8           0        0.304174   -0.674036    1.338127
      8          8           0        2.057647   -0.490366   -0.086417
      9          8           0       -2.365799   -0.975684   -0.710290
     10          8           0       -1.812182    1.049314    0.939301
     11          8           0        1.193543    1.798702   -1.044263
     12          1           0        1.265180   -1.692609   -1.588894
     13          1           0        1.765356   -2.543294   -0.100401
     14          1           0       -0.593037   -2.308960    0.441778
     15          1           0        1.879794    0.612713    1.631046
     16          1           0       -1.403637    1.615832   -0.959520
     17          1           0        0.382385    2.235046    0.825122
     18          1           0       -0.696234   -0.548678   -1.778087
     19          1           0       -2.768973   -0.515417    0.051733
     20          1           0       -1.364602    0.532111    1.635392
     21          1           0        0.831984    2.653063   -1.330683
 ---------------------------------------------------------------------
 Rotational constants (GHZ):      1.5715198      1.1960282      0.9334559
 Standard basis: 6-31+G(d,p) (6D, 7F)
 There are   259 symmetry adapted basis functions of A   symmetry.
 Integral buffers will be    131072 words long.
 Raffenetti 2 integral format.
 Two-electron integral symmetry is turned on.
   259 basis functions,   422 primitive gaussians,   259 cartesian basis functions
    43 alpha electrons       43 beta electrons
       nuclear repulsion energy       729.3517959845 Hartrees.
 NAtoms=   21 NActive=   21 NUniq=   21 SFac= 1.00D+00 NAtFMM=   60 NAOKFM=F Big=F
 ------------------------------------------------------------------------------
 Polarizable Continuum Model (PCM)
 =================================
 Model                : PCM.
 Atomic radii         : UFF (Universal Force Field).
 Polarization charges : Total charges.
 Charge compensation  : None.
 Solution method      : Matrix inversion.
 Cavity type          : Scaled VdW (van der Waals Surface) (Alpha=1.100).
 Cavity algorithm     : GePol (No added spheres)
                        Default sphere list used, NSphG=   21.
                        Lebedev-Laikov grids with approx.  5.0 points / Ang**2.
                        Smoothing algorithm: Karplus/York (Gamma=1.0000).
                        Polarization charges: spherical gaussians, with
                                              point-specific exponents (IZeta= 3).
                        Self-potential: point-specific (ISelfS= 7).
                        Self-field    : sphere-specific E.n sum rule (ISelfD= 2).
 Solvent              : Water, Eps=  78.355300 Eps(inf)=   1.777849
 ------------------------------------------------------------------------------
 One-electron integrals computed using PRISM.
 NBasis=   259 RedAO= T  NBF=   259
 NBsUse=   259 1.00D-06 NBFU=   259
 Harris functional with IExCor=  908 diagonalized for initial guess.
 ExpMin= 4.38D-02 ExpMax= 5.48D+03 ExpMxC= 8.25D+02 IAcc=2 IRadAn=         4 AccDes= 0.00D+00
 HarFok:  IExCor=  908 AccDes= 0.00D+00 IRadAn=         4 IDoV= 1
 ScaDFX=  1.000000  1.000000  1.000000  1.000000
 FoFCou: FMM=F IPFlag=           0 FMFlag=      100000 FMFlg1=           0
         NFxFlg=           0 DoJE=T BraDBF=F KetDBF=T FulRan=T
         Omega=  0.000000  0.000000  1.000000  0.000000  0.000000 ICntrl=     500 IOpCl=  0
         NMat0=    1 NMatS0=    1 NMatT0=    0 NMatD0=    1 NMtDS0=    0 NMtDT0=    0
         I1Cent=           4 NGrid=           0.
 Petite list used in FoFCou.
 Initial guess orbital symmetries:
       Occupied  (A) (A) (A) (A) (A) (A) (A) (A) (A) (A) (A) (A)
                 (A) (A) (A) (A) (A) (A) (A) (A) (A) (A) (A) (A)
                 (A) (A) (A) (A) (A) (A) (A) (A) (A) (A) (A) (A)
                 (A) (A) (A) (A) (A) (A) (A)
       Virtual   (A) (A) (A) (A) (A) (A) (A) (A) (A) (A) (A) (A)
                 (A) (A) (A) (A) (A) (A) (A) (A) (A) (A) (A) (A)
                 (A) (A) (A) (A) (A) (A) (A) (A) (A) (A) (A) (A)
                 (A) (A) (A) (A) (A) (A) (A) (A) (A) (A) (A) (A)
                 (A) (A) (A) (A) (A) (A) (A) (A) (A) (A) (A) (A)
                 (A) (A) (A) (A) (A) (A) (A) (A) (A) (A) (A) (A)
                 (A) (A) (A) (A) (A) (A) (A) (A) (A) (A) (A) (A)
                 (A) (A) (A) (A) (A) (A) (A) (A) (A) (A) (A) (A)
                 (A) (A) (A) (A) (A) (A) (A) (A) (A) (A) (A) (A)
                 (A) (A) (A) (A) (A) (A) (A) (A) (A) (A) (A) (A)
                 (A) (A) (A) (A) (A) (A) (A) (A) (A) (A) (A) (A)
                 (A) (A) (A) (A) (A) (A) (A) (A) (A) (A) (A) (A)
                 (A) (A) (A) (A) (A) (A) (A) (A) (A) (A) (A) (A)
                 (A) (A) (A) (A) (A) (A) (A) (A) (A) (A) (A) (A)
                 (A) (A) (A) (A) (A) (A) (A) (A) (A) (A) (A) (A)
                 (A) (A) (A) (A) (A) (A) (A) (A) (A) (A) (A) (A)
                 (A) (A) (A) (A) (A) (A) (A) (A) (A) (A) (A) (A)
                 (A) (A) (A) (A) (A) (A) (A) (A) (A) (A) (A) (A)
 The electronic state of the initial guess is 1-A.
 Requested convergence on RMS density matrix=1.00D-08 within 128 cycles.
 Requested convergence on MAX density matrix=1.00D-06.
 Requested convergence on             energy=1.00D-06.
 No special actions if energy rises.
 Error on total polarization charges =  0.01156
 SCF Done:  E(RmPW1PW91) =  -610.642713663     A.U. after   12 cycles
             Convg  =    0.5837D-08             -V/T =  2.0090
 Range of M.O.s used for correlation:     1   259
 NBasis=   259 NAE=    43 NBE=    43 NFC=     0 NFV=     0
 NROrb=    259 NOA=    43 NOB=    43 NVA=   216 NVB=   216

 **** Warning!!: The largest alpha MO coefficient is  0.52450513D+02

 NEqPCM:  Using equilibrium solvation (IEInf=0, Eps=  78.3553, EpsInf=   1.7778)
          Differentiating once with respect to magnetic field using GIAOs.
          Electric field/nuclear overlap derivatives assumed to be zero.
 FoFCou: FMM=F IPFlag=           0 FMFlag=    10101102 FMFlg1=           0
         NFxFlg=    40000000 DoJE=F BraDBF=F KetDBF=T FulRan=T
         Omega=  0.000000  0.000000  1.000000  0.000000  0.000000 ICntrl=    6100 IOpCl=  0
         NMat0=    1 NMatS0=    1 NMatT0=    0 NMatD0=    1 NMtDS0=    0 NMtDT0=    0
         I1Cent=           7 NGrid=        1542.
 Symmetry not used in FoFCou.
          There are     3 degrees of freedom in the 1st order CPHF.  IDoFFX=0.
      3 vectors produced by pass  0 Test12= 3.10D-13 3.33D-08 XBig12= 2.08D+01 9.59D-01.
 AX will form     3 AO Fock derivatives at one time.
      3 vectors produced by pass  1 Test12= 3.10D-13 3.33D-08 XBig12= 4.54D-02 2.44D-02.
      3 vectors produced by pass  2 Test12= 3.10D-13 3.33D-08 XBig12= 9.79D-05 1.93D-03.
      3 vectors produced by pass  3 Test12= 3.10D-13 3.33D-08 XBig12= 4.57D-07 1.16D-04.
      3 vectors produced by pass  4 Test12= 3.10D-13 3.33D-08 XBig12= 1.52D-09 5.61D-06.
      3 vectors produced by pass  5 Test12= 3.10D-13 3.33D-08 XBig12= 5.87D-12 4.93D-07.
 Inverted reduced A of dimension    18 with in-core refinement.
 Calculating GIAO nuclear magnetic shielding tensors.
 SCF GIAO Magnetic shielding tensor (ppm):
      1  C    Isotropic =   127.3808   Anisotropy =    50.8930
   XX=   133.9252   YX=    19.3455   ZX=    -2.0301
   XY=    27.0970   YY=   134.4759   ZY=    16.6493
   XZ=     8.1914   YZ=    14.8563   ZZ=   113.7413
   Eigenvalues:   101.8663   118.9666   161.3095
      2  C    Isotropic =   112.6674   Anisotropy =    41.2175
   XX=   111.3049   YX=     9.3182   ZX=    14.1651
   XY=     0.3088   YY=   106.1173   ZY=    19.7263
   XZ=    14.9414   YZ=    15.7184   ZZ=   120.5802
   Eigenvalues:    92.8914   104.9651   140.1457
      3  C    Isotropic =    96.3418   Anisotropy =    36.9840
   XX=    96.8832   YX=    -4.7882   ZX=   -28.7202
   XY=     6.7685   YY=    98.8685   ZY=     5.1462
   XZ=   -22.6843   YZ=     2.3621   ZZ=    93.2737
   Eigenvalues:    68.9212    99.1064   120.9978
      4  C    Isotropic =   122.8817   Anisotropy =    51.1537
   XX=   125.9908   YX=     4.5271   ZX=   -31.5362
   XY=     9.8909   YY=   104.0910   ZY=    -7.2596
   XZ=   -14.7214   YZ=     2.5961   ZZ=   138.5632
   Eigenvalues:   100.8861   110.7748   156.9842
      5  C    Isotropic =   123.0235   Anisotropy =    42.5145
   XX=   129.2212   YX=    14.2691   ZX=   -20.9157
   XY=     6.1345   YY=   106.6248   ZY=    -0.9502
   XZ=   -13.2514   YZ=   -11.5047   ZZ=   133.2244
   Eigenvalues:   102.6952   115.0088   151.3665
      6  C    Isotropic =   121.7041   Anisotropy =    41.5610
   XX=   148.9381   YX=     3.0349   ZX=     5.2816
   XY=    -8.0457   YY=   109.3689   ZY=    -5.2714
   XZ=     1.1941   YZ=    -7.2730   ZZ=   106.8054
   Eigenvalues:   101.6668   114.0341   149.4115
      7  O    Isotropic =   234.7363   Anisotropy =    62.1100
   XX=   229.1305   YX=    -6.6005   ZX=   -44.2161
   XY=    27.0990   YY=   247.9693   ZY=    14.5917
   XZ=   -41.8380   YZ=    35.8186   ZZ=   227.1092
   Eigenvalues:   176.1101   251.9560   276.1430
      8  O    Isotropic =   277.2379   Anisotropy =   114.1301
   XX=   308.6956   YX=    33.4047   ZX=   -58.4957
   XY=    20.0972   YY=   285.8540   ZY=    43.1682
   XZ=   -83.4410   YZ=    15.8214   ZZ=   237.1642
   Eigenvalues:   179.0694   299.3197   353.3247
      9  O    Isotropic =   293.7938   Anisotropy =    53.9949
   XX=   320.8725   YX=    -9.2095   ZX=     5.4239
   XY=   -20.1148   YY=   289.9598   ZY=    -5.1774
   XZ=    21.0997   YZ=    -1.0712   ZZ=   270.5491
   Eigenvalues:   267.2555   284.3355   329.7904
     10  O    Isotropic =   292.6778   Anisotropy =    52.1772
   XX=   284.7354   YX=   -11.7442   ZX=    23.9071
   XY=   -11.8530   YY=   283.2274   ZY=   -25.7298
   XZ=    -4.0667   YZ=   -18.5226   ZZ=   310.0706
   Eigenvalues:   268.4189   282.1520   327.4626
     11  O    Isotropic =   301.2213   Anisotropy =    76.8678
   XX=   297.1853   YX=   -29.1079   ZX=    21.2070
   XY=   -17.9481   YY=   320.8336   ZY=   -41.4186
   XZ=    -7.6104   YZ=   -28.3342   ZZ=   285.6450
   Eigenvalues:   262.6230   288.5744   352.4665
     12  H    Isotropic =    27.7480   Anisotropy =     7.8188
   XX=    25.6497   YX=    -0.1605   ZX=     0.5684
   XY=    -0.1876   YY=    27.0628   ZY=     3.8570
   XZ=    -1.1574   YZ=     3.6776   ZZ=    30.5316
   Eigenvalues:    24.6497    25.6339    32.9605
     13  H    Isotropic =    27.6767   Anisotropy =    10.6391
   XX=    26.4678   YX=    -2.1126   ZX=    -0.1363
   XY=    -3.0945   YY=    33.9441   ZY=     0.2151
   XZ=     1.0777   YZ=    -0.5725   ZZ=    22.6182
   Eigenvalues:    22.5596    25.7011    34.7694
     14  H    Isotropic =    27.0966   Anisotropy =     6.3829
   XX=    26.4934   YX=     1.0312   ZX=     0.4958
   XY=     2.9455   YY=    30.5071   ZY=    -0.7438
   XZ=     0.7972   YZ=    -0.7164   ZZ=    24.2894
   Eigenvalues:    23.8456    26.0924    31.3519
     15  H    Isotropic =    25.9493   Anisotropy =     8.5898
   XX=    25.7301   YX=     1.2061   ZX=     2.8511
   XY=     1.0725   YY=    24.6485   ZY=     3.0224
   XZ=     4.1816   YZ=     3.2414   ZZ=    27.4692
   Eigenvalues:    22.1366    24.0354    31.6758
     16  H    Isotropic =    28.0136   Anisotropy =     7.0513
   XX=    26.2983   YX=    -0.7969   ZX=    -0.6656
   XY=    -1.6460   YY=    28.1348   ZY=    -2.9355
   XZ=     0.3408   YZ=    -4.4714   ZZ=    29.6077
   Eigenvalues:    24.4760    26.8504    32.7144
     17  H    Isotropic =    27.4105   Anisotropy =     5.3912
   XX=    25.3277   YX=     0.9732   ZX=    -1.7629
   XY=     1.2256   YY=    29.2834   ZY=     1.9804
   XZ=    -1.5841   YZ=     2.8441   ZZ=    27.6202
   Eigenvalues:    23.5923    27.6345    31.0046
     18  H    Isotropic =    27.8154   Anisotropy =     4.8684
   XX=    29.0667   YX=    -0.0734   ZX=    -0.5458
   XY=     1.0416   YY=    23.3642   ZY=    -0.1126
   XZ=     0.6754   YZ=     1.2315   ZZ=    31.0153
   Eigenvalues:    23.2840    29.1011    31.0610
     19  H    Isotropic =    27.5971   Anisotropy =    14.9258
   XX=    29.3219   YX=    -0.3891   ZX=    -5.8787
   XY=     0.5031   YY=    25.2824   ZY=     8.6955
   XZ=    -5.6393   YZ=     7.5528   ZZ=    28.1871
   Eigenvalues:    17.2134    28.0303    37.5477
     20  H    Isotropic =    29.2166   Anisotropy =    15.2646
   XX=    28.0659   YX=    -6.8886   ZX=     1.7228
   XY=    -7.0769   YY=    24.9458   ZY=    -5.7085
   XZ=     1.6927   YZ=    -5.6940   ZZ=    34.6380
   Eigenvalues:    18.5618    29.6950    39.3930
     21  H    Isotropic =    30.0515   Anisotropy =    20.3843
   XX=    24.9588   YX=    -3.9872   ZX=    -1.6019
   XY=    -3.8826   YY=    38.8169   ZY=    -8.0545
   XZ=    -0.3967   YZ=    -8.9503   ZZ=    26.3790
   Eigenvalues:    20.3596    26.1539    43.6411
 End of Minotr Frequency-dependent properties file   721 does not exist.
 End of Minotr Frequency-dependent properties file   722 does not exist.

 **********************************************************************

            Population analysis using the SCF density.

 **********************************************************************

 Orbital symmetries:
       Occupied  (A) (A) (A) (A) (A) (A) (A) (A) (A) (A) (A) (A)
                 (A) (A) (A) (A) (A) (A) (A) (A) (A) (A) (A) (A)
                 (A) (A) (A) (A) (A) (A) (A) (A) (A) (A) (A) (A)
                 (A) (A) (A) (A) (A) (A) (A)
       Virtual   (A) (A) (A) (A) (A) (A) (A) (A) (A) (A) (A) (A)
                 (A) (A) (A) (A) (A) (A) (A) (A) (A) (A) (A) (A)
                 (A) (A) (A) (A) (A) (A) (A) (A) (A) (A) (A) (A)
                 (A) (A) (A) (A) (A) (A) (A) (A) (A) (A) (A) (A)
                 (A) (A) (A) (A) (A) (A) (A) (A) (A) (A) (A) (A)
                 (A) (A) (A) (A) (A) (A) (A) (A) (A) (A) (A) (A)
                 (A) (A) (A) (A) (A) (A) (A) (A) (A) (A) (A) (A)
                 (A) (A) (A) (A) (A) (A) (A) (A) (A) (A) (A) (A)
                 (A) (A) (A) (A) (A) (A) (A) (A) (A) (A) (A) (A)
                 (A) (A) (A) (A) (A) (A) (A) (A) (A) (A) (A) (A)
                 (A) (A) (A) (A) (A) (A) (A) (A) (A) (A) (A) (A)
                 (A) (A) (A) (A) (A) (A) (A) (A) (A) (A) (A) (A)
                 (A) (A) (A) (A) (A) (A) (A) (A) (A) (A) (A) (A)
                 (A) (A) (A) (A) (A) (A) (A) (A) (A) (A) (A) (A)
                 (A) (A) (A) (A) (A) (A) (A) (A) (A) (A) (A) (A)
                 (A) (A) (A) (A) (A) (A) (A) (A) (A) (A) (A) (A)
                 (A) (A) (A) (A) (A) (A) (A) (A) (A) (A) (A) (A)
                 (A) (A) (A) (A) (A) (A) (A) (A) (A) (A) (A) (A)
 The electronic state is 1-A.
 Alpha  occ. eigenvalues --  -19.28539 -19.26953 -19.26903 -19.26733 -19.25770
 Alpha  occ. eigenvalues --  -10.36357 -10.31863 -10.31709 -10.31629 -10.31382
 Alpha  occ. eigenvalues --  -10.30738  -1.14663  -1.08703  -1.07265  -1.05357
 Alpha  occ. eigenvalues --   -1.04174  -0.82253  -0.80558  -0.70566  -0.69029
 Alpha  occ. eigenvalues --   -0.64572  -0.61401  -0.57645  -0.55765  -0.54662
 Alpha  occ. eigenvalues --   -0.52320  -0.50002  -0.49201  -0.48517  -0.45605
 Alpha  occ. eigenvalues --   -0.44417  -0.43390  -0.42634  -0.39832  -0.39335
 Alpha  occ. eigenvalues --   -0.38333  -0.36723  -0.35848  -0.33741  -0.33447
 Alpha  occ. eigenvalues --   -0.30365  -0.28469  -0.28280
 Alpha virt. eigenvalues --    0.00586   0.01017   0.02083   0.02656   0.04181
 Alpha virt. eigenvalues --    0.04310   0.04841   0.05319   0.05531   0.08384
 Alpha virt. eigenvalues --    0.08802   0.09208   0.09894   0.10411   0.10943
 Alpha virt. eigenvalues --    0.12033   0.12149   0.13359   0.13529   0.14230
 Alpha virt. eigenvalues --    0.15112   0.15374   0.16425   0.17087   0.17684
 Alpha virt. eigenvalues --    0.18520   0.18845   0.19191   0.19913   0.21050
 Alpha virt. eigenvalues --    0.22020   0.22031   0.22877   0.23541   0.23962
 Alpha virt. eigenvalues --    0.24608   0.24998   0.25573   0.26445   0.27604
 Alpha virt. eigenvalues --    0.28371   0.28721   0.29466   0.29802   0.30632
 Alpha virt. eigenvalues --    0.31200   0.31773   0.32669   0.33108   0.34046
 Alpha virt. eigenvalues --    0.34938   0.35641   0.36165   0.37108   0.37204
 Alpha virt. eigenvalues --    0.37748   0.39175   0.39598   0.39973   0.40622
 Alpha virt. eigenvalues --    0.41212   0.42411   0.44450   0.47202   0.49063
 Alpha virt. eigenvalues --    0.49954   0.63333   0.67367   0.67533   0.70278
 Alpha virt. eigenvalues --    0.72426   0.73790   0.75038   0.75465   0.78708
 Alpha virt. eigenvalues --    0.80856   0.81348   0.82249   0.84485   0.86259
 Alpha virt. eigenvalues --    0.87536   0.90838   0.92143   0.94967   0.99121
 Alpha virt. eigenvalues --    1.01490   1.02401   1.04590   1.05808   1.06380
 Alpha virt. eigenvalues --    1.07220   1.09434   1.11142   1.13084   1.15106
 Alpha virt. eigenvalues --    1.19657   1.22893   1.24654   1.26155   1.27879
 Alpha virt. eigenvalues --    1.28955   1.30040   1.30605   1.31849   1.32689
 Alpha virt. eigenvalues --    1.33885   1.36498   1.38941   1.40999   1.43034
 Alpha virt. eigenvalues --    1.43983   1.45818   1.45976   1.46816   1.51807
 Alpha virt. eigenvalues --    1.52556   1.54705   1.55898   1.57627   1.60770
 Alpha virt. eigenvalues --    1.62513   1.62892   1.66381   1.67228   1.68859
 Alpha virt. eigenvalues --    1.71190   1.72163   1.75871   1.77330   1.79039
 Alpha virt. eigenvalues --    1.81535   1.83157   1.83850   1.84590   1.88251
 Alpha virt. eigenvalues --    1.89847   1.93892   1.94809   1.96437   1.98492
 Alpha virt. eigenvalues --    1.99315   2.00252   2.02338   2.06163   2.07791
 Alpha virt. eigenvalues --    2.10816   2.12815   2.13825   2.15166   2.17442
 Alpha virt. eigenvalues --    2.20213   2.20570   2.26269   2.27448   2.33119
 Alpha virt. eigenvalues --    2.34798   2.37408   2.38405   2.40310   2.44168
 Alpha virt. eigenvalues --    2.44747   2.46982   2.51000   2.53118   2.53775
 Alpha virt. eigenvalues --    2.54747   2.57446   2.59924   2.62426   2.64491
 Alpha virt. eigenvalues --    2.65893   2.67635   2.69121   2.69303   2.70357
 Alpha virt. eigenvalues --    2.72003   2.72796   2.76134   2.78004   2.79408
 Alpha virt. eigenvalues --    2.82327   2.85118   2.87014   2.88110   2.90556
 Alpha virt. eigenvalues --    2.93937   2.97035   2.98081   3.01343   3.03785
 Alpha virt. eigenvalues --    3.04808   3.07446   3.14069   3.14758   3.24324
 Alpha virt. eigenvalues --    3.34524   3.41962   3.45352   3.46146   3.49448
 Alpha virt. eigenvalues --    3.51964   3.53433   3.55602   3.58853   3.61751
 Alpha virt. eigenvalues --    4.26390   4.27864   4.44219   4.44749   4.56462
 Alpha virt. eigenvalues --    4.60329   4.65914   4.77353   4.88560   4.99828
 Alpha virt. eigenvalues --    5.11114
          Condensed to atoms (all electrons):
              1          2          3          4          5          6
     1  C    5.612655  -0.236071  -0.303200  -0.014321   0.071364  -0.044759
     2  C   -0.236071   6.861470  -0.280041   0.164458   0.306781  -0.975315
     3  C   -0.303200  -0.280041   6.087314   0.047580  -0.365679   0.028272
     4  C   -0.014321   0.164458   0.047580   6.314071  -0.305810  -0.460763
     5  C    0.071364   0.306781  -0.365679  -0.305810   6.553197  -0.478219
     6  C   -0.044759  -0.975315   0.028272  -0.460763  -0.478219   7.534733
     7  O    0.003079   0.044709   0.283653   0.004933  -0.252981  -0.137202
     8  O    0.199388  -0.154356   0.350984  -0.002343  -0.188784   0.081078
     9  O    0.011748  -0.089804  -0.018522  -0.032329   0.052999   0.196652
    10  O    0.026494  -0.072713  -0.052116   0.049800   0.061043   0.009804
    11  O    0.040446  -0.046588  -0.107293  -0.017559   0.174133  -0.020024
    12  H    0.468964  -0.123301   0.011578   0.011089   0.004369  -0.014744
    13  H    0.371607  -0.002980  -0.007797  -0.008030   0.003213   0.027601
    14  H    0.014067   0.325110   0.000401   0.020473   0.003737  -0.012877
    15  H    0.016195   0.009798   0.354246   0.014861  -0.037367   0.017558
    16  H   -0.002711   0.034489   0.016594   0.395502  -0.012109  -0.086169
    17  H   -0.002803  -0.021974  -0.004067   0.005183   0.298514   0.046425
    18  H    0.056549  -0.140504  -0.021808  -0.108771   0.026969   0.481959
    19  H    0.004889  -0.030078  -0.003213  -0.089180   0.020949   0.063133
    20  H   -0.005513   0.034516   0.025101   0.055420  -0.052800  -0.066205
    21  H   -0.003827   0.009141   0.014878  -0.033312   0.050138  -0.023455
              7          8          9         10         11         12
     1  C    0.003079   0.199388   0.011748   0.026494   0.040446   0.468964
     2  C    0.044709  -0.154356  -0.089804  -0.072713  -0.046588  -0.123301
     3  C    0.283653   0.350984  -0.018522  -0.052116  -0.107293   0.011578
     4  C    0.004933  -0.002343  -0.032329   0.049800  -0.017559   0.011089
     5  C   -0.252981  -0.188784   0.052999   0.061043   0.174133   0.004369
     6  C   -0.137202   0.081078   0.196652   0.009804  -0.020024  -0.014744
     7  O    8.493773  -0.059612   0.011847   0.022863   0.025882   0.012187
     8  O   -0.059612   8.292388  -0.002281  -0.003396  -0.009305  -0.051482
     9  O    0.011847  -0.002281   8.245306  -0.026035   0.000831   0.001104
    10  O    0.022863  -0.003396  -0.026035   8.308913   0.005875   0.000187
    11  O    0.025882  -0.009305   0.000831   0.005875   8.296840   0.002288
    12  H    0.012187  -0.051482   0.001104   0.000187   0.002288   0.537873
    13  H   -0.005533  -0.048891  -0.000559   0.000024  -0.000244  -0.038594
    14  H   -0.037032   0.009032  -0.004189  -0.001627   0.000043   0.002011
    15  H   -0.049448  -0.042928  -0.000011  -0.000349   0.004260  -0.000285
    16  H    0.003165  -0.001644   0.004817  -0.049139  -0.006882   0.000003
    17  H    0.000601   0.006050  -0.000987  -0.006243  -0.035834  -0.000005
    18  H    0.016256  -0.003011  -0.054515   0.013085   0.006720   0.003002
    19  H    0.001302  -0.000102   0.245980   0.042959   0.000037  -0.000015
    20  H    0.019410  -0.000810  -0.000773   0.251159  -0.000053  -0.000008
    21  H   -0.000636   0.001204   0.000177  -0.000103   0.226936   0.000002
             13         14         15         16         17         18
     1  C    0.371607   0.014067   0.016195  -0.002711  -0.002803   0.056549
     2  C   -0.002980   0.325110   0.009798   0.034489  -0.021974  -0.140504
     3  C   -0.007797   0.000401   0.354246   0.016594  -0.004067  -0.021808
     4  C   -0.008030   0.020473   0.014861   0.395502   0.005183  -0.108771
     5  C    0.003213   0.003737  -0.037367  -0.012109   0.298514   0.026969
     6  C    0.027601  -0.012877   0.017558  -0.086169   0.046425   0.481959
     7  O   -0.005533  -0.037032  -0.049448   0.003165   0.000601   0.016256
     8  O   -0.048891   0.009032  -0.042928  -0.001644   0.006050  -0.003011
     9  O   -0.000559  -0.004189  -0.000011   0.004817  -0.000987  -0.054515
    10  O    0.000024  -0.001627  -0.000349  -0.049139  -0.006243   0.013085
    11  O   -0.000244   0.000043   0.004260  -0.006882  -0.035834   0.006720
    12  H   -0.038594   0.002011  -0.000285   0.000003  -0.000005   0.003002
    13  H    0.533848  -0.003477   0.000363   0.000001   0.000007   0.000118
    14  H   -0.003477   0.481081   0.000008  -0.000114   0.000008   0.001643
    15  H    0.000363   0.000008   0.528965  -0.000118  -0.004632   0.000034
    16  H    0.000001  -0.000114  -0.000118   0.517457  -0.003608  -0.003018
    17  H    0.000007   0.000008  -0.004632  -0.003608   0.540943  -0.000115
    18  H    0.000118   0.001643   0.000034  -0.003018  -0.000115   0.539171
    19  H    0.000006   0.000136   0.000001  -0.000728  -0.000019   0.005875
    20  H    0.000001  -0.000187  -0.000447   0.005484  -0.000530  -0.000310
    21  H    0.000001  -0.000001  -0.000197   0.003197  -0.008091  -0.000004
             19         20         21
     1  C    0.004889  -0.005513  -0.003827
     2  C   -0.030078   0.034516   0.009141
     3  C   -0.003213   0.025101   0.014878
     4  C   -0.089180   0.055420  -0.033312
     5  C    0.020949  -0.052800   0.050138
     6  C    0.063133  -0.066205  -0.023455
     7  O    0.001302   0.019410  -0.000636
     8  O   -0.000102  -0.000810   0.001204
     9  O    0.245980  -0.000773   0.000177
    10  O    0.042959   0.251159  -0.000103
    11  O    0.000037  -0.000053   0.226936
    12  H   -0.000015  -0.000008   0.000002
    13  H    0.000006   0.000001   0.000001
    14  H    0.000136  -0.000187  -0.000001
    15  H    0.000001  -0.000447  -0.000197
    16  H   -0.000728   0.005484   0.003197
    17  H   -0.000019  -0.000530  -0.008091
    18  H    0.005875  -0.000310  -0.000004
    19  H    0.351063  -0.004037  -0.000002
    20  H   -0.004037   0.329282   0.000017
    21  H   -0.000002   0.000017   0.363177
 Mulliken atomic charges:
              1
     1  C   -0.284240
     2  C    0.383252
     3  C   -0.056866
     4  C   -0.010954
     5  C    0.066342
     6  C   -0.167486
     7  O   -0.401217
     8  O   -0.371178
     9  O   -0.541455
    10  O   -0.580488
    11  O   -0.540511
    12  H    0.173777
    13  H    0.179312
    14  H    0.201752
    15  H    0.189493
    16  H    0.185532
    17  H    0.191175
    18  H    0.180673
    19  H    0.391045
    20  H    0.411283
    21  H    0.400758
 Sum of Mulliken atomic charges =   0.00000
 Mulliken charges with hydrogens summed into heavy atoms:
              1
     1  C    0.068849
     2  C    0.585004
     3  C    0.132627
     4  C    0.174578
     5  C    0.257517
     6  C    0.013187
     7  O   -0.401217
     8  O   -0.371178
     9  O   -0.150410
    10  O   -0.169205
    11  O   -0.139752
 Sum of Mulliken charges with hydrogens summed into heavy atoms =   0.00000
 Electronic spatial extent (au):  <R**2>=           1412.9572
 Charge=              0.0000 electrons
 Dipole moment (field-independent basis, Debye):
    X=              0.1856    Y=              1.0988    Z=              0.5560  Tot=              1.2454
 Quadrupole moment (field-independent basis, Debye-Ang):
   XX=            -78.9648   YY=            -55.2324   ZZ=            -63.6664
   XY=             -1.8697   XZ=              0.3219   YZ=             -1.4109
 Traceless Quadrupole moment (field-independent basis, Debye-Ang):
   XX=            -13.0103   YY=             10.7222   ZZ=              2.2881
   XY=             -1.8697   XZ=              0.3219   YZ=             -1.4109
 Octapole moment (field-independent basis, Debye-Ang**2):
  XXX=             -4.9128  YYY=             17.2945  ZZZ=              0.9398  XYY=             14.0336
  XXY=             -0.1710  XXZ=             17.0575  XZZ=              2.3683  YZZ=              7.8403
  YYZ=            -10.6754  XYZ=             15.2385
 Hexadecapole moment (field-independent basis, Debye-Ang**3):
 XXXX=           -883.4724 YYYY=           -514.0418 ZZZZ=           -295.8870 XXXY=             -6.6694
 XXXZ=            -13.9000 YYYX=              1.5333 YYYZ=            -45.5270 ZZZX=            -10.5380
 ZZZY=              0.8797 XXYY=           -260.8392 XXZZ=           -193.6788 YYZZ=           -140.8455
 XXYZ=            -16.1728 YYXZ=             -4.0913 ZZXY=              1.6832
 N-N= 7.293517959845D+02 E-N=-2.888449331408D+03  KE= 6.052022942528D+02
 1\1\GINC-COMPUTE-8-20\SP\RmPW1PW91\6-31+G(d,p)\C6H10O5\MMARCARINO.IQUI
 R\12-Apr-2019\0\\# mpw1pw91/6-31+g** nmr scrf=(pcm,solvent=water)\\com
 ment\\0,1\C,0,1.293998,-1.637446,-0.496772\C,0,-0.082272,-1.395967,0.1
 34006\C,0,1.253883,0.249948,0.813333\C,0,-0.96656,0.943042,-0.215871\C
 ,0,0.472053,1.403373,0.112767\C,0,-1.023983,-0.513491,-0.73399\O,0,0.3
 04174,-0.674036,1.338127\O,0,2.057647,-0.490366,-0.086417\O,0,-2.36579
 9,-0.975684,-0.71029\O,0,-1.812182,1.049314,0.939301\O,0,1.193543,1.79
 8702,-1.044263\H,0,1.26518,-1.692609,-1.588894\H,0,1.765356,-2.543294,
 -0.100401\H,0,-0.593037,-2.30896,0.441778\H,0,1.879794,0.612713,1.6310
 46\H,0,-1.403637,1.615832,-0.95952\H,0,0.382384,2.235046,0.825122\H,0,
 -0.696234,-0.548678,-1.778087\H,0,-2.768973,-0.515418,0.051733\H,0,-1.
 364602,0.532111,1.635392\H,0,0.831983,2.653063,-1.330683\\Version=EM64
 L-G09RevC.01\State=1-A\HF=-610.6427137\RMSD=5.837e-09\Dipole=0.0730349
 ,0.4322972,0.2187493\Quadrupole=-9.6728189,7.9716663,1.7011526,-1.3900
 499,0.2393281,-1.0489951\PG=C01 [X(C6H10O5)]\\@


 WHAT, THEN, IS TIME?  IF NO ONE ASKS ME, I KNOW WHAT IT IS.
 IF I WISH TO EXPLAIN WHAT IT IS TO HIM WHO ASKS ME, I DO NOT KNOW.
                                   -- ST. AUGUSTINE (FIFTH CENTURY)
 Job cpu time:  0 days  0 hours 19 minutes 57.4 seconds.
 File lengths (MBytes):  RWF=     83 Int=      0 D2E=      0 Chk=      5 Scr=      1
 Normal termination of Gaussian 09 at Fri Apr 12 12:47:35 2019.
