 Entering Gaussian System, Link 0=g09
 Input=/home/mmarcarino.iquir/NMR/08_SRR_Levo14_OPTB_nmr.gjc
 Output=/home/mmarcarino.iquir/NMR/08_SRR_Levo14_OPTB_nmr.log
 Initial command:
 /share/apps/Gaussian09/EM64T.SSE4.2-enabled/g09/l1.exe /tmp/Gau-8616.inp -scrdir=/tmp/
 Entering Link 1 = /share/apps/Gaussian09/EM64T.SSE4.2-enabled/g09/l1.exe PID=      8617.
  
 Copyright (c) 1988,1990,1992,1993,1995,1998,2003,2009,2011,
            Gaussian, Inc.  All Rights Reserved.
  
 This is part of the Gaussian(R) 09 program.  It is based on
 the Gaussian(R) 03 system (copyright 2003, Gaussian, Inc.),
 the Gaussian(R) 98 system (copyright 1998, Gaussian, Inc.),
 the Gaussian(R) 94 system (copyright 1995, Gaussian, Inc.),
 the Gaussian 92(TM) system (copyright 1992, Gaussian, Inc.),
 the Gaussian 90(TM) system (copyright 1990, Gaussian, Inc.),
 the Gaussian 88(TM) system (copyright 1988, Gaussian, Inc.),
 the Gaussian 86(TM) system (copyright 1986, Carnegie Mellon
 University), and the Gaussian 82(TM) system (copyright 1983,
 Carnegie Mellon University). Gaussian is a federally registered
 trademark of Gaussian, Inc.
  
 This software contains proprietary and confidential information,
 including trade secrets, belonging to Gaussian, Inc.
  
 This software is provided under written license and may be
 used, copied, transmitted, or stored only in accord with that
 written license.
  
 The following legend is applicable only to US Government
 contracts under FAR:
  
                    RESTRICTED RIGHTS LEGEND
  
 Use, reproduction and disclosure by the US Government is
 subject to restrictions as set forth in subparagraphs (a)
 and (c) of the Commercial Computer Software - Restricted
 Rights clause in FAR 52.227-19.
  
 Gaussian, Inc.
 340 Quinnipiac St., Bldg. 40, Wallingford CT 06492
  
  
 ---------------------------------------------------------------
 Warning -- This program may not be used in any manner that
 competes with the business of Gaussian, Inc. or will provide
 assistance to any competitor of Gaussian, Inc.  The licensee
 of this program is prohibited from giving any competitor of
 Gaussian, Inc. access to this program.  By using this program,
 the user acknowledges that Gaussian, Inc. is engaged in the
 business of creating and licensing software in the field of
 computational chemistry and represents and warrants to the
 licensee that it is not a competitor of Gaussian, Inc. and that
 it will not use this program in any manner prohibited above.
 ---------------------------------------------------------------
  

 Cite this work as:
 Gaussian 09, Revision C.01,
 M. J. Frisch, G. W. Trucks, H. B. Schlegel, G. E. Scuseria, 
 M. A. Robb, J. R. Cheeseman, G. Scalmani, V. Barone, B. Mennucci, 
 G. A. Petersson, H. Nakatsuji, M. Caricato, X. Li, H. P. Hratchian, 
 A. F. Izmaylov, J. Bloino, G. Zheng, J. L. Sonnenberg, M. Hada, 
 M. Ehara, K. Toyota, R. Fukuda, J. Hasegawa, M. Ishida, T. Nakajima, 
 Y. Honda, O. Kitao, H. Nakai, T. Vreven, J. A. Montgomery, Jr., 
 J. E. Peralta, F. Ogliaro, M. Bearpark, J. J. Heyd, E. Brothers, 
 K. N. Kudin, V. N. Staroverov, T. Keith, R. Kobayashi, J. Normand, 
 K. Raghavachari, A. Rendell, J. C. Burant, S. S. Iyengar, J. Tomasi, 
 M. Cossi, N. Rega, J. M. Millam, M. Klene, J. E. Knox, J. B. Cross, 
 V. Bakken, C. Adamo, J. Jaramillo, R. Gomperts, R. E. Stratmann, 
 O. Yazyev, A. J. Austin, R. Cammi, C. Pomelli, J. W. Ochterski, 
 R. L. Martin, K. Morokuma, V. G. Zakrzewski, G. A. Voth, 
 P. Salvador, J. J. Dannenberg, S. Dapprich, A. D. Daniels, 
 O. Farkas, J. B. Foresman, J. V. Ortiz, J. Cioslowski, 
 and D. J. Fox, Gaussian, Inc., Wallingford CT, 2010.
 
 ******************************************
 Gaussian 09:  EM64L-G09RevC.01 23-Sep-2011
                12-Apr-2019 
 ******************************************
 %nprocshared=4
 Will use up to    4 processors via shared memory.
 ------------------------------------------------
 # mpw1pw91/6-31+g** nmr scrf=(pcm,solvent=water)
 ------------------------------------------------
 1/38=1/1;
 2/12=2,17=6,18=5,40=1/2;
 3/5=1,6=6,7=111,11=2,16=1,25=1,30=1,70=2201,72=1,74=-7/1,2,8,3;
 4//1;
 5/5=2,38=5,53=1/2;
 8/6=1,10=90,11=11/1;
 10/13=100,45=16/2;
 6/7=2,8=2,9=2,10=2,28=1/1;
 99/9=1/99;
 -------
 comment
 -------
 Charge =  0 Multiplicity = 1
 Symbolic Z-Matrix:
 6                     1.26444  -1.68174  -0.41757 
 6                    -0.11022  -1.39112   0.18282 
 6                     1.23361   0.27002   0.82563 
 6                    -0.95176   0.95852  -0.2505 
 6                     0.48258   1.42215   0.09344 
 6                    -1.0178   -0.51355  -0.72758 
 8                     0.28927  -0.63852   1.36535 
 8                     1.99947  -0.4708   -0.13288 
 8                    -2.36566  -0.9561   -0.72236 
 8                    -1.82043   1.10509   0.8836 
 8                     1.20061   1.85033  -1.04989 
 1                     1.25272  -1.84759  -1.49705 
 1                     1.75208  -2.52527   0.08131 
 1                    -0.64556  -2.2794    0.51888 
 1                     1.89205   0.61666   1.62384 
 1                    -1.35946   1.61517  -1.02279 
 1                     0.38513   2.27884   0.7695 
 1                    -0.66814  -0.58381  -1.76339 
 1                    -2.77858  -0.47015   0.01836 
 1                    -1.39409   0.61081   1.60832 
 1                     1.73264   1.07904  -1.32487 
 
                          Input orientation:                          
 ---------------------------------------------------------------------
 Center     Atomic      Atomic             Coordinates (Angstroms)
 Number     Number       Type             X           Y           Z
 ---------------------------------------------------------------------
      1          6           0        1.264438   -1.681735   -0.417574
      2          6           0       -0.110224   -1.391120    0.182815
      3          6           0        1.233611    0.270022    0.825631
      4          6           0       -0.951761    0.958520   -0.250495
      5          6           0        0.482584    1.422152    0.093439
      6          6           0       -1.017797   -0.513546   -0.727584
      7          8           0        0.289270   -0.638523    1.365348
      8          8           0        1.999467   -0.470801   -0.132881
      9          8           0       -2.365656   -0.956102   -0.722361
     10          8           0       -1.820426    1.105093    0.883595
     11          8           0        1.200606    1.850326   -1.049889
     12          1           0        1.252720   -1.847589   -1.497045
     13          1           0        1.752079   -2.525273    0.081314
     14          1           0       -0.645559   -2.279399    0.518881
     15          1           0        1.892048    0.616660    1.623844
     16          1           0       -1.359456    1.615165   -1.022789
     17          1           0        0.385134    2.278836    0.769498
     18          1           0       -0.668141   -0.583813   -1.763391
     19          1           0       -2.778578   -0.470148    0.018359
     20          1           0       -1.394086    0.610811    1.608317
     21          1           0        1.732639    1.079040   -1.324873
 ---------------------------------------------------------------------
                    Distance matrix (angstroms):
                    1          2          3          4          5
     1  C    0.000000
     2  C    1.527946   0.000000
     3  C    2.314274   2.231255   0.000000
     4  C    3.451145   2.533131   2.531388   0.000000
     5  C    3.241380   2.876440   1.558060   1.546154   0.000000
     6  C    2.582512   1.556487   2.845223   1.548855   2.583050
     7  O    2.284306   1.457526   1.417226   2.588755   2.429301
     8  O    1.444880   2.323241   1.433213   3.281240   2.436273
     9  O    3.714434   2.468918   4.105409   2.426424   3.799223
    10  O    4.356126   3.105956   3.166677   1.436044   2.455347
    11  O    3.588781   3.707399   2.452759   2.463135   1.416364
    12  H    1.092201   2.210862   3.143162   3.779930   3.716713
    13  H    1.094641   2.182837   2.938791   4.422405   4.146556
    14  H    2.209579   1.090213   3.181968   3.342128   3.892966
    15  H    3.137499   3.180698   1.091257   3.423049   2.231041
    16  H    4.256836   3.471572   3.456886   1.092628   2.162482
    17  H    4.227108   3.749420   2.181375   2.137968   1.095655
    18  H    2.598368   2.179618   3.323963   2.179010   2.965785
    19  H    4.243107   2.827605   4.158990   2.334660   3.771156
    20  H    4.053116   2.772740   2.762884   1.942096   2.544606
    21  H    2.943515   3.430883   2.351214   2.893928   1.921451
                    6          7          8          9         10
     6  C    0.000000
     7  O    2.470710   0.000000
     8  O    3.075611   2.279823   0.000000
     9  O    1.418664   3.392347   4.431400   0.000000
    10  O    2.420765   2.779047   4.255379   2.669250   0.000000
    11  O    3.257773   3.585843   2.620441   4.549894   3.663382
    12  H    2.743536   3.253209   2.077046   3.806249   4.881599
    13  H    3.517609   2.710789   2.080369   4.479278   5.156162
    14  H    2.193279   2.069513   3.269860   2.500106   3.601127
    15  H    3.908168   2.052121   2.068863   5.109433   3.816936
    16  H    2.176072   3.674317   4.052845   2.777429   2.026565
    17  H    3.465093   2.979129   3.313738   4.500812   2.501037
    18  H    1.095488   3.272405   3.128493   2.025808   3.344652
    19  H    1.912763   3.354761   4.780438   0.977406   2.036682
    20  H    2.619581   2.110345   3.964575   2.971738   0.975347
    21  H    3.233880   3.502945   1.973335   4.615284   4.183573
                   11         12         13         14         15
    11  O    0.000000
    12  H    3.725217   0.000000
    13  H    4.552978   1.788807   0.000000
    14  H    4.787901   2.802478   2.449610   0.000000
    15  H    3.024710   4.027557   3.502961   4.005939   0.000000
    16  H    2.570983   4.363376   5.295651   4.249003   4.309751
    17  H    2.039310   4.787202   5.041984   4.680026   2.400734
    18  H    3.150608   2.314687   3.609663   2.843288   4.412376
    19  H    4.728600   4.521632   4.975375   2.841422   5.057023
    20  H    3.915978   4.763674   4.697352   3.178125   3.286176
    21  H    0.976503   2.970711   3.868955   4.509364   2.989003
                   16         17         18         19         20
    16  H    0.000000
    17  H    2.587730   0.000000
    18  H    2.421139   3.964804   0.000000
    19  H    2.728814   4.257957   2.764326   0.000000
    20  H    2.816495   2.579060   3.650005   2.369231   0.000000
    21  H    3.152735   2.764357   2.953155   4.955334   4.312685
                   21
    21  H    0.000000
 Stoichiometry    C6H10O5
 Framework group  C1[X(C6H10O5)]
 Deg. of freedom    57
 Full point group                 C1      NOp   1
 Largest Abelian subgroup         C1      NOp   1
 Largest concise Abelian subgroup C1      NOp   1
                         Standard orientation:                         
 ---------------------------------------------------------------------
 Center     Atomic      Atomic             Coordinates (Angstroms)
 Number     Number       Type             X           Y           Z
 ---------------------------------------------------------------------
      1          6           0        1.264437   -1.681735   -0.417574
      2          6           0       -0.110225   -1.391120    0.182815
      3          6           0        1.233611    0.270022    0.825631
      4          6           0       -0.951761    0.958521   -0.250495
      5          6           0        0.482585    1.422152    0.093439
      6          6           0       -1.017797   -0.513545   -0.727584
      7          8           0        0.289270   -0.638523    1.365348
      8          8           0        1.999467   -0.470802   -0.132881
      9          8           0       -2.365656   -0.956101   -0.722361
     10          8           0       -1.820425    1.105094    0.883595
     11          8           0        1.200607    1.850326   -1.049889
     12          1           0        1.252719   -1.847589   -1.497045
     13          1           0        1.752078   -2.525274    0.081314
     14          1           0       -0.645560   -2.279399    0.518881
     15          1           0        1.892048    0.616659    1.623844
     16          1           0       -1.359455    1.615166   -1.022789
     17          1           0        0.385135    2.278836    0.769498
     18          1           0       -0.668141   -0.583813   -1.763391
     19          1           0       -2.778578   -0.470147    0.018359
     20          1           0       -1.394086    0.610812    1.608317
     21          1           0        1.732640    1.079039   -1.324873
 ---------------------------------------------------------------------
 Rotational constants (GHZ):      1.5711883      1.2053736      0.9367736
 Standard basis: 6-31+G(d,p) (6D, 7F)
 There are   259 symmetry adapted basis functions of A   symmetry.
 Integral buffers will be    131072 words long.
 Raffenetti 2 integral format.
 Two-electron integral symmetry is turned on.
   259 basis functions,   422 primitive gaussians,   259 cartesian basis functions
    43 alpha electrons       43 beta electrons
       nuclear repulsion energy       730.9676588261 Hartrees.
 NAtoms=   21 NActive=   21 NUniq=   21 SFac= 1.00D+00 NAtFMM=   60 NAOKFM=F Big=F
 ------------------------------------------------------------------------------
 Polarizable Continuum Model (PCM)
 =================================
 Model                : PCM.
 Atomic radii         : UFF (Universal Force Field).
 Polarization charges : Total charges.
 Charge compensation  : None.
 Solution method      : Matrix inversion.
 Cavity type          : Scaled VdW (van der Waals Surface) (Alpha=1.100).
 Cavity algorithm     : GePol (No added spheres)
                        Default sphere list used, NSphG=   21.
                        Lebedev-Laikov grids with approx.  5.0 points / Ang**2.
                        Smoothing algorithm: Karplus/York (Gamma=1.0000).
                        Polarization charges: spherical gaussians, with
                                              point-specific exponents (IZeta= 3).
                        Self-potential: point-specific (ISelfS= 7).
                        Self-field    : sphere-specific E.n sum rule (ISelfD= 2).
 Solvent              : Water, Eps=  78.355300 Eps(inf)=   1.777849
 ------------------------------------------------------------------------------
 One-electron integrals computed using PRISM.
 NBasis=   259 RedAO= T  NBF=   259
 NBsUse=   259 1.00D-06 NBFU=   259
 Harris functional with IExCor=  908 diagonalized for initial guess.
 ExpMin= 4.38D-02 ExpMax= 5.48D+03 ExpMxC= 8.25D+02 IAcc=2 IRadAn=         4 AccDes= 0.00D+00
 HarFok:  IExCor=  908 AccDes= 0.00D+00 IRadAn=         4 IDoV= 1
 ScaDFX=  1.000000  1.000000  1.000000  1.000000
 FoFCou: FMM=F IPFlag=           0 FMFlag=      100000 FMFlg1=           0
         NFxFlg=           0 DoJE=T BraDBF=F KetDBF=T FulRan=T
         Omega=  0.000000  0.000000  1.000000  0.000000  0.000000 ICntrl=     500 IOpCl=  0
         NMat0=    1 NMatS0=    1 NMatT0=    0 NMatD0=    1 NMtDS0=    0 NMtDT0=    0
         I1Cent=           4 NGrid=           0.
 Petite list used in FoFCou.
 Initial guess orbital symmetries:
       Occupied  (A) (A) (A) (A) (A) (A) (A) (A) (A) (A) (A) (A)
                 (A) (A) (A) (A) (A) (A) (A) (A) (A) (A) (A) (A)
                 (A) (A) (A) (A) (A) (A) (A) (A) (A) (A) (A) (A)
                 (A) (A) (A) (A) (A) (A) (A)
       Virtual   (A) (A) (A) (A) (A) (A) (A) (A) (A) (A) (A) (A)
                 (A) (A) (A) (A) (A) (A) (A) (A) (A) (A) (A) (A)
                 (A) (A) (A) (A) (A) (A) (A) (A) (A) (A) (A) (A)
                 (A) (A) (A) (A) (A) (A) (A) (A) (A) (A) (A) (A)
                 (A) (A) (A) (A) (A) (A) (A) (A) (A) (A) (A) (A)
                 (A) (A) (A) (A) (A) (A) (A) (A) (A) (A) (A) (A)
                 (A) (A) (A) (A) (A) (A) (A) (A) (A) (A) (A) (A)
                 (A) (A) (A) (A) (A) (A) (A) (A) (A) (A) (A) (A)
                 (A) (A) (A) (A) (A) (A) (A) (A) (A) (A) (A) (A)
                 (A) (A) (A) (A) (A) (A) (A) (A) (A) (A) (A) (A)
                 (A) (A) (A) (A) (A) (A) (A) (A) (A) (A) (A) (A)
                 (A) (A) (A) (A) (A) (A) (A) (A) (A) (A) (A) (A)
                 (A) (A) (A) (A) (A) (A) (A) (A) (A) (A) (A) (A)
                 (A) (A) (A) (A) (A) (A) (A) (A) (A) (A) (A) (A)
                 (A) (A) (A) (A) (A) (A) (A) (A) (A) (A) (A) (A)
                 (A) (A) (A) (A) (A) (A) (A) (A) (A) (A) (A) (A)
                 (A) (A) (A) (A) (A) (A) (A) (A) (A) (A) (A) (A)
                 (A) (A) (A) (A) (A) (A) (A) (A) (A) (A) (A) (A)
 The electronic state of the initial guess is 1-A.
 Requested convergence on RMS density matrix=1.00D-08 within 128 cycles.
 Requested convergence on MAX density matrix=1.00D-06.
 Requested convergence on             energy=1.00D-06.
 No special actions if energy rises.
 Error on total polarization charges =  0.01161
 SCF Done:  E(RmPW1PW91) =  -610.647362779     A.U. after   12 cycles
             Convg  =    0.5332D-08             -V/T =  2.0090
 Range of M.O.s used for correlation:     1   259
 NBasis=   259 NAE=    43 NBE=    43 NFC=     0 NFV=     0
 NROrb=    259 NOA=    43 NOB=    43 NVA=   216 NVB=   216

 **** Warning!!: The largest alpha MO coefficient is  0.49822974D+02

 NEqPCM:  Using equilibrium solvation (IEInf=0, Eps=  78.3553, EpsInf=   1.7778)
          Differentiating once with respect to magnetic field using GIAOs.
          Electric field/nuclear overlap derivatives assumed to be zero.
 FoFCou: FMM=F IPFlag=           0 FMFlag=    10101102 FMFlg1=           0
         NFxFlg=    40000000 DoJE=F BraDBF=F KetDBF=T FulRan=T
         Omega=  0.000000  0.000000  1.000000  0.000000  0.000000 ICntrl=    6100 IOpCl=  0
         NMat0=    1 NMatS0=    1 NMatT0=    0 NMatD0=    1 NMtDS0=    0 NMtDT0=    0
         I1Cent=           7 NGrid=        1540.
 Symmetry not used in FoFCou.
          There are     3 degrees of freedom in the 1st order CPHF.  IDoFFX=0.
      3 vectors produced by pass  0 Test12= 3.10D-13 3.33D-08 XBig12= 2.16D+01 1.01D+00.
 AX will form     3 AO Fock derivatives at one time.
      3 vectors produced by pass  1 Test12= 3.10D-13 3.33D-08 XBig12= 4.68D-02 3.23D-02.
      3 vectors produced by pass  2 Test12= 3.10D-13 3.33D-08 XBig12= 9.53D-05 2.04D-03.
      3 vectors produced by pass  3 Test12= 3.10D-13 3.33D-08 XBig12= 4.28D-07 1.65D-04.
      3 vectors produced by pass  4 Test12= 3.10D-13 3.33D-08 XBig12= 1.41D-09 6.36D-06.
      3 vectors produced by pass  5 Test12= 3.10D-13 3.33D-08 XBig12= 5.00D-12 4.07D-07.
 Inverted reduced A of dimension    18 with in-core refinement.
 Calculating GIAO nuclear magnetic shielding tensors.
 SCF GIAO Magnetic shielding tensor (ppm):
      1  C    Isotropic =   127.5781   Anisotropy =    48.0819
   XX=   133.2394   YX=    16.3955   ZX=    -5.3513
   XY=    26.3306   YY=   138.8178   ZY=    13.6675
   XZ=     6.5895   YZ=    11.5936   ZZ=   110.6771
   Eigenvalues:   103.3239   119.7778   159.6327
      2  C    Isotropic =   112.2055   Anisotropy =    40.0869
   XX=   110.7642   YX=    10.8598   ZX=    14.7472
   XY=    -0.1163   YY=   107.2475   ZY=    19.6232
   XZ=    13.7940   YZ=    15.0066   ZZ=   118.6047
   Eigenvalues:    93.3237   104.3626   138.9301
      3  C    Isotropic =    96.8011   Anisotropy =    37.7210
   XX=    98.2512   YX=    -7.0190   ZX=   -29.6737
   XY=     6.8731   YY=    99.0785   ZY=     5.3207
   XZ=   -21.7117   YZ=     4.1744   ZZ=    93.0734
   Eigenvalues:    69.4300    99.0247   121.9484
      4  C    Isotropic =   122.8436   Anisotropy =    50.7353
   XX=   127.7890   YX=     2.2198   ZX=   -30.9681
   XY=     9.2883   YY=   103.2838   ZY=    -5.5110
   XZ=   -15.5067   YZ=     4.4411   ZZ=   137.4579
   Eigenvalues:   100.8663   110.9973   156.6671
      5  C    Isotropic =   124.3503   Anisotropy =    43.8263
   XX=   131.7913   YX=    16.2713   ZX=   -22.7264
   XY=     5.9991   YY=   107.1584   ZY=     1.2242
   XZ=   -13.1933   YZ=   -10.3894   ZZ=   134.1011
   Eigenvalues:   102.6487   116.8344   153.5678
      6  C    Isotropic =   123.1527   Anisotropy =    41.2532
   XX=   149.7880   YX=     3.0476   ZX=     6.0717
   XY=    -7.7282   YY=   111.2066   ZY=    -5.2016
   XZ=     4.2307   YZ=    -6.1601   ZZ=   108.4635
   Eigenvalues:   103.8367   114.9665   150.6548
      7  O    Isotropic =   239.6628   Anisotropy =    65.6676
   XX=   228.8809   YX=    -3.3663   ZX=   -37.2705
   XY=    25.0268   YY=   251.1031   ZY=    22.0632
   XZ=   -37.9064   YZ=    40.1762   ZZ=   239.0043
   Eigenvalues:   183.3499   252.1972   283.4412
      8  O    Isotropic =   277.4490   Anisotropy =   104.6372
   XX=   296.8883   YX=    49.2023   ZX=   -55.1862
   XY=    25.6019   YY=   290.7060   ZY=    45.0715
   XZ=   -80.8899   YZ=    21.4258   ZZ=   244.7528
   Eigenvalues:   177.0317   308.1083   347.2071
      9  O    Isotropic =   294.3842   Anisotropy =    52.9460
   XX=   319.3463   YX=    -8.6656   ZX=     6.9695
   XY=   -20.6102   YY=   291.1548   ZY=    -5.8703
   XZ=    22.9025   YZ=    -2.0515   ZZ=   272.6516
   Eigenvalues:   268.2778   285.1933   329.6816
     10  O    Isotropic =   292.6147   Anisotropy =    50.2579
   XX=   285.3259   YX=   -10.2137   ZX=    21.7631
   XY=    -9.4715   YY=   282.3798   ZY=   -26.5305
   XZ=    -4.6329   YZ=   -17.7799   ZZ=   310.1386
   Eigenvalues:   268.6774   283.0468   326.1200
     11  O    Isotropic =   304.8218   Anisotropy =    48.7400
   XX=   317.9310   YX=   -26.1045   ZX=   -19.2167
   XY=   -16.2419   YY=   314.1603   ZY=   -21.4027
   XZ=   -13.7233   YZ=   -12.4566   ZZ=   282.3742
   Eigenvalues:   264.1663   312.9841   337.3152
     12  H    Isotropic =    27.7064   Anisotropy =     8.1676
   XX=    25.3949   YX=     0.0378   ZX=     0.3513
   XY=    -0.3717   YY=    27.9222   ZY=     4.2893
   XZ=    -1.2602   YZ=     4.0251   ZZ=    29.8020
   Eigenvalues:    24.5706    25.3971    33.1514
     13  H    Isotropic =    27.7744   Anisotropy =    10.9571
   XX=    26.5279   YX=    -2.3711   ZX=    -0.0080
   XY=    -3.2392   YY=    33.9827   ZY=    -0.9046
   XZ=     1.2697   YZ=    -1.6164   ZZ=    22.8126
   Eigenvalues:    22.6406    25.6034    35.0791
     14  H    Isotropic =    27.0889   Anisotropy =     6.4033
   XX=    26.6012   YX=     1.3145   ZX=     0.4134
   XY=     3.1577   YY=    30.2467   ZY=    -0.9557
   XZ=     0.7061   YZ=    -0.8544   ZZ=    24.4190
   Eigenvalues:    23.8896    26.0194    31.3578
     15  H    Isotropic =    26.0069   Anisotropy =     8.9313
   XX=    25.8892   YX=     1.4421   ZX=     3.1046
   XY=     1.4233   YY=    24.4176   ZY=     2.9868
   XZ=     4.0924   YZ=     3.1217   ZZ=    27.7138
   Eigenvalues:    22.3457    23.7138    31.9611
     16  H    Isotropic =    27.8907   Anisotropy =     6.9341
   XX=    26.3042   YX=    -1.0222   ZX=    -0.5586
   XY=    -1.5237   YY=    27.8083   ZY=    -2.8663
   XZ=     0.3580   YZ=    -4.4191   ZZ=    29.5597
   Eigenvalues:    24.3436    26.8152    32.5134
     17  H    Isotropic =    27.6041   Anisotropy =     6.1832
   XX=    25.8381   YX=     1.2265   ZX=    -1.3310
   XY=     1.2798   YY=    29.7947   ZY=     2.4358
   XZ=    -1.9618   YZ=     3.4815   ZZ=    27.1794
   Eigenvalues:    23.4598    27.6262    31.7262
     18  H    Isotropic =    27.8834   Anisotropy =     4.8429
   XX=    29.3004   YX=    -0.1934   ZX=    -0.3901
   XY=     0.9959   YY=    23.3476   ZY=     0.2128
   XZ=     0.6765   YZ=     1.4615   ZZ=    31.0023
   Eigenvalues:    23.2329    29.3054    31.1120
     19  H    Isotropic =    27.5869   Anisotropy =    14.9674
   XX=    29.6046   YX=    -0.7742   ZX=    -5.7225
   XY=     0.1446   YY=    25.6771   ZY=     8.8794
   XZ=    -5.5142   YZ=     7.7279   ZZ=    27.4791
   Eigenvalues:    17.1383    28.0573    37.5652
     20  H    Isotropic =    29.3800   Anisotropy =    14.9612
   XX=    27.8984   YX=    -6.5159   ZX=     1.6401
   XY=    -6.6991   YY=    24.7940   ZY=    -5.4933
   XZ=     1.4488   YZ=    -5.3348   ZZ=    35.4478
   Eigenvalues:    18.8462    29.9398    39.3541
     21  H    Isotropic =    28.6126   Anisotropy =    16.2797
   XX=    26.5613   YX=    -7.9969   ZX=    -5.5017
   XY=    -7.1941   YY=    34.1253   ZY=    -0.3372
   XZ=    -6.6866   YZ=    -0.5293   ZZ=    25.1512
   Eigenvalues:    17.7120    28.6601    39.4657
 End of Minotr Frequency-dependent properties file   721 does not exist.
 End of Minotr Frequency-dependent properties file   722 does not exist.

 **********************************************************************

            Population analysis using the SCF density.

 **********************************************************************

 Orbital symmetries:
       Occupied  (A) (A) (A) (A) (A) (A) (A) (A) (A) (A) (A) (A)
                 (A) (A) (A) (A) (A) (A) (A) (A) (A) (A) (A) (A)
                 (A) (A) (A) (A) (A) (A) (A) (A) (A) (A) (A) (A)
                 (A) (A) (A) (A) (A) (A) (A)
       Virtual   (A) (A) (A) (A) (A) (A) (A) (A) (A) (A) (A) (A)
                 (A) (A) (A) (A) (A) (A) (A) (A) (A) (A) (A) (A)
                 (A) (A) (A) (A) (A) (A) (A) (A) (A) (A) (A) (A)
                 (A) (A) (A) (A) (A) (A) (A) (A) (A) (A) (A) (A)
                 (A) (A) (A) (A) (A) (A) (A) (A) (A) (A) (A) (A)
                 (A) (A) (A) (A) (A) (A) (A) (A) (A) (A) (A) (A)
                 (A) (A) (A) (A) (A) (A) (A) (A) (A) (A) (A) (A)
                 (A) (A) (A) (A) (A) (A) (A) (A) (A) (A) (A) (A)
                 (A) (A) (A) (A) (A) (A) (A) (A) (A) (A) (A) (A)
                 (A) (A) (A) (A) (A) (A) (A) (A) (A) (A) (A) (A)
                 (A) (A) (A) (A) (A) (A) (A) (A) (A) (A) (A) (A)
                 (A) (A) (A) (A) (A) (A) (A) (A) (A) (A) (A) (A)
                 (A) (A) (A) (A) (A) (A) (A) (A) (A) (A) (A) (A)
                 (A) (A) (A) (A) (A) (A) (A) (A) (A) (A) (A) (A)
                 (A) (A) (A) (A) (A) (A) (A) (A) (A) (A) (A) (A)
                 (A) (A) (A) (A) (A) (A) (A) (A) (A) (A) (A) (A)
                 (A) (A) (A) (A) (A) (A) (A) (A) (A) (A) (A) (A)
                 (A) (A) (A) (A) (A) (A) (A) (A) (A) (A) (A) (A)
 The electronic state is 1-A.
 Alpha  occ. eigenvalues --  -19.29011 -19.28335 -19.26967 -19.26186 -19.25871
 Alpha  occ. eigenvalues --  -10.36831 -10.32207 -10.31608 -10.31591 -10.31553
 Alpha  occ. eigenvalues --  -10.31316  -1.15305  -1.08760  -1.07211  -1.05496
 Alpha  occ. eigenvalues --   -1.04624  -0.82667  -0.80481  -0.70947  -0.69140
 Alpha  occ. eigenvalues --   -0.65118  -0.61693  -0.58675  -0.55962  -0.53390
 Alpha  occ. eigenvalues --   -0.52118  -0.51224  -0.50406  -0.47664  -0.46030
 Alpha  occ. eigenvalues --   -0.44181  -0.43406  -0.42928  -0.41171  -0.39039
 Alpha  occ. eigenvalues --   -0.38816  -0.37043  -0.36039  -0.34089  -0.33697
 Alpha  occ. eigenvalues --   -0.31242  -0.28669  -0.28438
 Alpha virt. eigenvalues --    0.00739   0.01171   0.02285   0.02681   0.04063
 Alpha virt. eigenvalues --    0.04443   0.04669   0.05201   0.05474   0.08473
 Alpha virt. eigenvalues --    0.08991   0.09359   0.09889   0.10436   0.10617
 Alpha virt. eigenvalues --    0.11993   0.12072   0.13099   0.13282   0.14020
 Alpha virt. eigenvalues --    0.15109   0.15661   0.16219   0.17053   0.17661
 Alpha virt. eigenvalues --    0.18310   0.18774   0.18913   0.19767   0.20844
 Alpha virt. eigenvalues --    0.21559   0.22045   0.22463   0.22726   0.23490
 Alpha virt. eigenvalues --    0.24414   0.24922   0.25467   0.25908   0.27851
 Alpha virt. eigenvalues --    0.27975   0.28638   0.29616   0.30158   0.30689
 Alpha virt. eigenvalues --    0.31263   0.31770   0.32598   0.32917   0.33703
 Alpha virt. eigenvalues --    0.34218   0.35572   0.35689   0.36192   0.37160
 Alpha virt. eigenvalues --    0.37273   0.38187   0.39135   0.39595   0.39965
 Alpha virt. eigenvalues --    0.40956   0.43092   0.43795   0.48050   0.48418
 Alpha virt. eigenvalues --    0.49831   0.63379   0.67030   0.68257   0.70718
 Alpha virt. eigenvalues --    0.72011   0.73780   0.74411   0.74980   0.78495
 Alpha virt. eigenvalues --    0.81137   0.81882   0.83088   0.83904   0.85984
 Alpha virt. eigenvalues --    0.87959   0.90447   0.91844   0.94824   0.98381
 Alpha virt. eigenvalues --    1.00984   1.02450   1.04197   1.06155   1.06773
 Alpha virt. eigenvalues --    1.08028   1.10332   1.12109   1.12304   1.13939
 Alpha virt. eigenvalues --    1.19836   1.22755   1.24277   1.25859   1.27352
 Alpha virt. eigenvalues --    1.28445   1.30300   1.31363   1.31918   1.32516
 Alpha virt. eigenvalues --    1.33168   1.35260   1.38514   1.39831   1.40513
 Alpha virt. eigenvalues --    1.43279   1.45226   1.45379   1.48522   1.52374
 Alpha virt. eigenvalues --    1.53215   1.54337   1.56442   1.56898   1.60055
 Alpha virt. eigenvalues --    1.60278   1.62699   1.65270   1.66983   1.68179
 Alpha virt. eigenvalues --    1.70636   1.72624   1.75148   1.77267   1.78282
 Alpha virt. eigenvalues --    1.80134   1.82317   1.84321   1.85138   1.89199
 Alpha virt. eigenvalues --    1.89873   1.93084   1.94324   1.96094   1.98026
 Alpha virt. eigenvalues --    1.99287   1.99590   2.03893   2.06984   2.08194
 Alpha virt. eigenvalues --    2.09815   2.11673   2.13857   2.14274   2.17587
 Alpha virt. eigenvalues --    2.18934   2.22310   2.26911   2.27474   2.33105
 Alpha virt. eigenvalues --    2.34070   2.35901   2.39007   2.41312   2.42912
 Alpha virt. eigenvalues --    2.45693   2.46754   2.50732   2.53708   2.54386
 Alpha virt. eigenvalues --    2.56407   2.57491   2.59140   2.62567   2.63509
 Alpha virt. eigenvalues --    2.64904   2.67399   2.68740   2.69355   2.69952
 Alpha virt. eigenvalues --    2.71487   2.72218   2.76284   2.77371   2.78503
 Alpha virt. eigenvalues --    2.82466   2.86341   2.86733   2.87610   2.90290
 Alpha virt. eigenvalues --    2.95990   2.97029   2.98271   3.01112   3.03738
 Alpha virt. eigenvalues --    3.06412   3.08698   3.12608   3.14289   3.23220
 Alpha virt. eigenvalues --    3.33873   3.42129   3.44472   3.45590   3.49796
 Alpha virt. eigenvalues --    3.51903   3.52546   3.58761   3.59712   3.61833
 Alpha virt. eigenvalues --    4.26758   4.29652   4.42075   4.44668   4.55366
 Alpha virt. eigenvalues --    4.58275   4.65335   4.81737   4.88871   4.96275
 Alpha virt. eigenvalues --    5.08044
          Condensed to atoms (all electrons):
              1          2          3          4          5          6
     1  C    5.632853  -0.145973  -0.297278   0.106820  -0.007466  -0.138577
     2  C   -0.145973   6.883325  -0.445888   0.328203   0.314675  -1.123678
     3  C   -0.297278  -0.445888   6.244390  -0.164004  -0.260209   0.258625
     4  C    0.106820   0.328203  -0.164004   7.101678  -0.722678  -0.888884
     5  C   -0.007466   0.314675  -0.260209  -0.722678   6.766783  -0.295346
     6  C   -0.138577  -1.123678   0.258625  -0.888884  -0.295346   7.671780
     7  O    0.018284   0.056780   0.255898   0.064408  -0.265788  -0.137814
     8  O    0.125928  -0.148790   0.238941  -0.017504  -0.209385   0.154267
     9  O    0.010072  -0.086486  -0.028187  -0.016049   0.042099   0.211767
    10  O    0.024321  -0.076509  -0.047163   0.017119   0.058928   0.043378
    11  O    0.020308  -0.019229  -0.103141  -0.124546   0.321592  -0.007090
    12  H    0.462726  -0.109927   0.020743   0.004461   0.003362  -0.007073
    13  H    0.375959  -0.011214  -0.014270  -0.005788   0.003825   0.026438
    14  H    0.012085   0.329127   0.000603   0.027144   0.000773  -0.020760
    15  H    0.014197   0.011838   0.334105   0.025209  -0.031873   0.010335
    16  H   -0.000657   0.029244   0.017879   0.396607  -0.022609  -0.073992
    17  H   -0.003584  -0.030294   0.015615  -0.054063   0.335807   0.067847
    18  H    0.051118  -0.136635  -0.020870  -0.111426   0.025031   0.493482
    19  H    0.005170  -0.027338  -0.004006  -0.088085   0.022777   0.057315
    20  H   -0.005997   0.029729   0.028855   0.050203  -0.053784  -0.055358
    21  H    0.004984  -0.010648  -0.030558  -0.014542  -0.009015   0.027411
              7          8          9         10         11         12
     1  C    0.018284   0.125928   0.010072   0.024321   0.020308   0.462726
     2  C    0.056780  -0.148790  -0.086486  -0.076509  -0.019229  -0.109927
     3  C    0.255898   0.238941  -0.028187  -0.047163  -0.103141   0.020743
     4  C    0.064408  -0.017504  -0.016049   0.017119  -0.124546   0.004461
     5  C   -0.265788  -0.209385   0.042099   0.058928   0.321592   0.003362
     6  C   -0.137814   0.154267   0.211767   0.043378  -0.007090  -0.007073
     7  O    8.478533  -0.075540   0.009599   0.022032   0.021299   0.011318
     8  O   -0.075540   8.474948  -0.002861  -0.002249  -0.012666  -0.059439
     9  O    0.009599  -0.002861   8.237844  -0.028863  -0.002313   0.000818
    10  O    0.022032  -0.002249  -0.028863   8.306432   0.005419   0.000125
    11  O    0.021299  -0.012666  -0.002313   0.005419   8.197480   0.001221
    12  H    0.011318  -0.059439   0.000818   0.000125   0.001221   0.515100
    13  H   -0.005728  -0.037363  -0.000482   0.000052  -0.000625  -0.033403
    14  H   -0.037814   0.011168  -0.003598  -0.001648   0.000146   0.001581
    15  H   -0.051452  -0.028017   0.000033  -0.000419   0.003181  -0.000245
    16  H    0.002784  -0.002294   0.004213  -0.047331  -0.003608  -0.000002
    17  H   -0.002248   0.008081  -0.001194  -0.003196  -0.051008  -0.000003
    18  H    0.014601  -0.003441  -0.055156   0.012754   0.002462   0.001991
    19  H    0.001196  -0.000131   0.247163   0.042863   0.000084  -0.000012
    20  H    0.017239  -0.000874  -0.001395   0.251602  -0.000050  -0.000008
    21  H    0.000408   0.034178  -0.000181   0.000188   0.255270  -0.000145
             13         14         15         16         17         18
     1  C    0.375959   0.012085   0.014197  -0.000657  -0.003584   0.051118
     2  C   -0.011214   0.329127   0.011838   0.029244  -0.030294  -0.136635
     3  C   -0.014270   0.000603   0.334105   0.017879   0.015615  -0.020870
     4  C   -0.005788   0.027144   0.025209   0.396607  -0.054063  -0.111426
     5  C    0.003825   0.000773  -0.031873  -0.022609   0.335807   0.025031
     6  C    0.026438  -0.020760   0.010335  -0.073992   0.067847   0.493482
     7  O   -0.005728  -0.037814  -0.051452   0.002784  -0.002248   0.014601
     8  O   -0.037363   0.011168  -0.028017  -0.002294   0.008081  -0.003441
     9  O   -0.000482  -0.003598   0.000033   0.004213  -0.001194  -0.055156
    10  O    0.000052  -0.001648  -0.000419  -0.047331  -0.003196   0.012754
    11  O   -0.000625   0.000146   0.003181  -0.003608  -0.051008   0.002462
    12  H   -0.033403   0.001581  -0.000245  -0.000002  -0.000003   0.001991
    13  H    0.517959  -0.002800   0.000483   0.000002   0.000005   0.000148
    14  H   -0.002800   0.477238   0.000032  -0.000109   0.000011   0.001691
    15  H    0.000483   0.000032   0.520029  -0.000115  -0.004109   0.000035
    16  H    0.000002  -0.000109  -0.000115   0.508287  -0.003384  -0.003234
    17  H    0.000005   0.000011  -0.004109  -0.003384   0.528904  -0.000134
    18  H    0.000148   0.001691   0.000035  -0.003234  -0.000134   0.534695
    19  H    0.000006   0.000120   0.000001  -0.000744  -0.000013   0.005928
    20  H    0.000002  -0.000169  -0.000412   0.005318  -0.000415  -0.000328
    21  H    0.000085  -0.000015   0.000207  -0.000045   0.005388  -0.000088
             19         20         21
     1  C    0.005170  -0.005997   0.004984
     2  C   -0.027338   0.029729  -0.010648
     3  C   -0.004006   0.028855  -0.030558
     4  C   -0.088085   0.050203  -0.014542
     5  C    0.022777  -0.053784  -0.009015
     6  C    0.057315  -0.055358   0.027411
     7  O    0.001196   0.017239   0.000408
     8  O   -0.000131  -0.000874   0.034178
     9  O    0.247163  -0.001395  -0.000181
    10  O    0.042863   0.251602   0.000188
    11  O    0.000084  -0.000050   0.255270
    12  H   -0.000012  -0.000008  -0.000145
    13  H    0.000006   0.000002   0.000085
    14  H    0.000120  -0.000169  -0.000015
    15  H    0.000001  -0.000412   0.000207
    16  H   -0.000744   0.005318  -0.000045
    17  H   -0.000013  -0.000415   0.005388
    18  H    0.005928  -0.000328  -0.000088
    19  H    0.350456  -0.003917   0.000002
    20  H   -0.003917   0.330239  -0.000019
    21  H    0.000002  -0.000019   0.341303
 Mulliken atomic charges:
              1
     1  C   -0.265292
     2  C    0.389687
     3  C   -0.000080
     4  C    0.085714
     5  C   -0.017495
     6  C   -0.274074
     7  O   -0.397995
     8  O   -0.446960
     9  O   -0.536843
    10  O   -0.577834
    11  O   -0.504188
    12  H    0.186813
    13  H    0.186709
    14  H    0.205194
    15  H    0.196957
    16  H    0.193789
    17  H    0.191985
    18  H    0.187376
    19  H    0.391163
    20  H    0.409541
    21  H    0.395833
 Sum of Mulliken atomic charges =   0.00000
 Mulliken charges with hydrogens summed into heavy atoms:
              1
     1  C    0.108230
     2  C    0.594881
     3  C    0.196877
     4  C    0.279503
     5  C    0.174490
     6  C   -0.086698
     7  O   -0.397995
     8  O   -0.446960
     9  O   -0.145680
    10  O   -0.168293
    11  O   -0.108355
 Sum of Mulliken charges with hydrogens summed into heavy atoms =   0.00000
 Electronic spatial extent (au):  <R**2>=           1407.2151
 Charge=              0.0000 electrons
 Dipole moment (field-independent basis, Debye):
    X=              1.8353    Y=             -2.5312    Z=              1.0512  Tot=              3.2985
 Quadrupole moment (field-independent basis, Debye-Ang):
   XX=            -73.6263   YY=            -66.9358   ZZ=            -63.5879
   XY=             -3.3203   XZ=             -1.8116   YZ=              3.4584
 Traceless Quadrupole moment (field-independent basis, Debye-Ang):
   XX=             -5.5763   YY=              1.1142   ZZ=              4.4621
   XY=             -3.3203   XZ=             -1.8116   YZ=              3.4584
 Octapole moment (field-independent basis, Debye-Ang**2):
  XXX=              6.5586  YYY=            -23.9300  ZZZ=              1.3383  XYY=              6.1866
  XXY=              0.4971  XXZ=             11.8165  XZZ=              5.8333  YZZ=              0.3783
  YYZ=              8.1141  XYZ=             16.0625
 Hexadecapole moment (field-independent basis, Debye-Ang**3):
 XXXX=           -850.6161 YYYY=           -620.3213 ZZZZ=           -294.5337 XXXY=             -0.9530
 XXXZ=            -27.3315 YYYX=            -30.7950 YYYZ=             12.2741 ZZZX=            -17.4007
 ZZZY=             14.9731 XXYY=           -264.2195 XXZZ=           -181.2793 YYZZ=           -164.0799
 XXYZ=            -18.7761 YYXZ=              8.9520 ZZXY=             -2.2589
 N-N= 7.309676588261D+02 E-N=-2.891086783068D+03  KE= 6.052091790453D+02
 1\1\GINC-COMPUTE-8-20\SP\RmPW1PW91\6-31+G(d,p)\C6H10O5\MMARCARINO.IQUI
 R\12-Apr-2019\0\\# mpw1pw91/6-31+g** nmr scrf=(pcm,solvent=water)\\com
 ment\\0,1\C,0,1.264438,-1.681735,-0.417574\C,0,-0.110224,-1.39112,0.18
 2815\C,0,1.233611,0.270022,0.825631\C,0,-0.951761,0.95852,-0.250495\C,
 0,0.482584,1.422152,0.093439\C,0,-1.017797,-0.513546,-0.727584\O,0,0.2
 8927,-0.638523,1.365348\O,0,1.999467,-0.470801,-0.132881\O,0,-2.365656
 ,-0.956102,-0.722361\O,0,-1.820426,1.105093,0.883595\O,0,1.200606,1.85
 0326,-1.049889\H,0,1.25272,-1.847589,-1.497045\H,0,1.752079,-2.525273,
 0.081314\H,0,-0.645559,-2.279399,0.518881\H,0,1.892048,0.61666,1.62384
 4\H,0,-1.359456,1.615165,-1.022789\H,0,0.385134,2.278836,0.769498\H,0,
 -0.668141,-0.583813,-1.763391\H,0,-2.778578,-0.470148,0.018359\H,0,-1.
 394086,0.610811,1.608317\H,0,1.732639,1.07904,-1.324873\\Version=EM64L
 -G09RevC.01\State=1-A\HF=-610.6473628\RMSD=5.332e-09\Dipole=0.7220702,
 -0.9958385,0.4135585\Quadrupole=-4.1458282,0.8283825,3.3174457,-2.4685
 361,-1.3469007,2.5712391\PG=C01 [X(C6H10O5)]\\@


 ALMOST ALL THE CHEMICAL PROCESSES WHICH OCCUR IN NATURE,
 WHETHER IN ANIMAL OR VEGETABLE ORGANISMS,
 OR IN THE NON-LIVING SURFACE OF THE EARTH ... 
 TAKE PLACE BETWEEN SUBSTANCES IN SOLUTION

                                    -- W. OSTWALD, 1890
 Job cpu time:  0 days  0 hours 20 minutes 25.8 seconds.
 File lengths (MBytes):  RWF=     83 Int=      0 D2E=      0 Chk=      5 Scr=      1
 Normal termination of Gaussian 09 at Fri Apr 12 12:42:27 2019.
