 Entering Gaussian System, Link 0=g09
 Input=/home/mmarcarino.iquir/NMR/08_SRR_Levo01_OPTB_nmr.gjc
 Output=/home/mmarcarino.iquir/NMR/08_SRR_Levo01_OPTB_nmr.log
 Initial command:
 /share/apps/Gaussian09/EM64T.SSE4.2-enabled/g09/l1.exe /tmp/Gau-6636.inp -scrdir=/tmp/
 Entering Link 1 = /share/apps/Gaussian09/EM64T.SSE4.2-enabled/g09/l1.exe PID=      6637.
  
 Copyright (c) 1988,1990,1992,1993,1995,1998,2003,2009,2011,
            Gaussian, Inc.  All Rights Reserved.
  
 This is part of the Gaussian(R) 09 program.  It is based on
 the Gaussian(R) 03 system (copyright 2003, Gaussian, Inc.),
 the Gaussian(R) 98 system (copyright 1998, Gaussian, Inc.),
 the Gaussian(R) 94 system (copyright 1995, Gaussian, Inc.),
 the Gaussian 92(TM) system (copyright 1992, Gaussian, Inc.),
 the Gaussian 90(TM) system (copyright 1990, Gaussian, Inc.),
 the Gaussian 88(TM) system (copyright 1988, Gaussian, Inc.),
 the Gaussian 86(TM) system (copyright 1986, Carnegie Mellon
 University), and the Gaussian 82(TM) system (copyright 1983,
 Carnegie Mellon University). Gaussian is a federally registered
 trademark of Gaussian, Inc.
  
 This software contains proprietary and confidential information,
 including trade secrets, belonging to Gaussian, Inc.
  
 This software is provided under written license and may be
 used, copied, transmitted, or stored only in accord with that
 written license.
  
 The following legend is applicable only to US Government
 contracts under FAR:
  
                    RESTRICTED RIGHTS LEGEND
  
 Use, reproduction and disclosure by the US Government is
 subject to restrictions as set forth in subparagraphs (a)
 and (c) of the Commercial Computer Software - Restricted
 Rights clause in FAR 52.227-19.
  
 Gaussian, Inc.
 340 Quinnipiac St., Bldg. 40, Wallingford CT 06492
  
  
 ---------------------------------------------------------------
 Warning -- This program may not be used in any manner that
 competes with the business of Gaussian, Inc. or will provide
 assistance to any competitor of Gaussian, Inc.  The licensee
 of this program is prohibited from giving any competitor of
 Gaussian, Inc. access to this program.  By using this program,
 the user acknowledges that Gaussian, Inc. is engaged in the
 business of creating and licensing software in the field of
 computational chemistry and represents and warrants to the
 licensee that it is not a competitor of Gaussian, Inc. and that
 it will not use this program in any manner prohibited above.
 ---------------------------------------------------------------
  

 Cite this work as:
 Gaussian 09, Revision C.01,
 M. J. Frisch, G. W. Trucks, H. B. Schlegel, G. E. Scuseria, 
 M. A. Robb, J. R. Cheeseman, G. Scalmani, V. Barone, B. Mennucci, 
 G. A. Petersson, H. Nakatsuji, M. Caricato, X. Li, H. P. Hratchian, 
 A. F. Izmaylov, J. Bloino, G. Zheng, J. L. Sonnenberg, M. Hada, 
 M. Ehara, K. Toyota, R. Fukuda, J. Hasegawa, M. Ishida, T. Nakajima, 
 Y. Honda, O. Kitao, H. Nakai, T. Vreven, J. A. Montgomery, Jr., 
 J. E. Peralta, F. Ogliaro, M. Bearpark, J. J. Heyd, E. Brothers, 
 K. N. Kudin, V. N. Staroverov, T. Keith, R. Kobayashi, J. Normand, 
 K. Raghavachari, A. Rendell, J. C. Burant, S. S. Iyengar, J. Tomasi, 
 M. Cossi, N. Rega, J. M. Millam, M. Klene, J. E. Knox, J. B. Cross, 
 V. Bakken, C. Adamo, J. Jaramillo, R. Gomperts, R. E. Stratmann, 
 O. Yazyev, A. J. Austin, R. Cammi, C. Pomelli, J. W. Ochterski, 
 R. L. Martin, K. Morokuma, V. G. Zakrzewski, G. A. Voth, 
 P. Salvador, J. J. Dannenberg, S. Dapprich, A. D. Daniels, 
 O. Farkas, J. B. Foresman, J. V. Ortiz, J. Cioslowski, 
 and D. J. Fox, Gaussian, Inc., Wallingford CT, 2010.
 
 ******************************************
 Gaussian 09:  EM64L-G09RevC.01 23-Sep-2011
                12-Apr-2019 
 ******************************************
 %nprocshared=4
 Will use up to    4 processors via shared memory.
 ------------------------------------------------
 # mpw1pw91/6-31+g** nmr scrf=(pcm,solvent=water)
 ------------------------------------------------
 1/38=1/1;
 2/12=2,17=6,18=5,40=1/2;
 3/5=1,6=6,7=111,11=2,16=1,25=1,30=1,70=2201,72=1,74=-7/1,2,8,3;
 4//1;
 5/5=2,38=5,53=1/2;
 8/6=1,10=90,11=11/1;
 10/13=100,45=16/2;
 6/7=2,8=2,9=2,10=2,28=1/1;
 99/9=1/99;
 -------
 comment
 -------
 Charge =  0 Multiplicity = 1
 Symbolic Z-Matrix:
 6                     1.85336  -0.39322  -1.0277 
 6                     1.05364  -1.2458   -0.02826 
 6                     1.00274   0.83891   0.72604 
 6                    -1.01523   0.0834   -0.55906 
 6                    -0.50426   1.05483   0.51733 
 6                    -0.43802  -1.33503  -0.37732 
 8                     1.221    -0.47808   1.17888 
 8                     1.69191   0.95195  -0.52538 
 8                    -1.1039   -2.01197   0.67809 
 8                    -2.43542  -0.03917  -0.53488 
 8                    -0.8252    2.40102   0.1809 
 1                     1.47916  -0.45063  -2.0544 
 1                     2.91594  -0.6558   -1.01547 
 1                     1.47448  -2.23754   0.14446 
 1                     1.42706   1.55124   1.43847 
 1                    -0.69357   0.4685   -1.53743 
 1                    -1.01256   0.85186   1.46495 
 1                    -0.55158  -1.89007  -1.32249 
 1                    -2.03423  -1.7283    0.61357 
 1                    -2.79708   0.8588   -0.44502 
 1                    -0.30803   2.62331  -0.61359 
 
                          Input orientation:                          
 ---------------------------------------------------------------------
 Center     Atomic      Atomic             Coordinates (Angstroms)
 Number     Number       Type             X           Y           Z
 ---------------------------------------------------------------------
      1          6           0        1.853357   -0.393218   -1.027700
      2          6           0        1.053642   -1.245798   -0.028257
      3          6           0        1.002736    0.838914    0.726041
      4          6           0       -1.015230    0.083403   -0.559064
      5          6           0       -0.504257    1.054830    0.517326
      6          6           0       -0.438022   -1.335031   -0.377318
      7          8           0        1.220996   -0.478078    1.178875
      8          8           0        1.691909    0.951950   -0.525384
      9          8           0       -1.103900   -2.011974    0.678094
     10          8           0       -2.435420   -0.039168   -0.534882
     11          8           0       -0.825203    2.401024    0.180896
     12          1           0        1.479160   -0.450631   -2.054403
     13          1           0        2.915944   -0.655801   -1.015466
     14          1           0        1.474477   -2.237537    0.144464
     15          1           0        1.427061    1.551240    1.438467
     16          1           0       -0.693573    0.468497   -1.537434
     17          1           0       -1.012556    0.851855    1.464949
     18          1           0       -0.551581   -1.890074   -1.322492
     19          1           0       -2.034230   -1.728296    0.613565
     20          1           0       -2.797084    0.858801   -0.445017
     21          1           0       -0.308026    2.623311   -0.613591
 ---------------------------------------------------------------------
                    Distance matrix (angstroms):
                    1          2          3          4          5
     1  C    0.000000
     2  C    1.537961   0.000000
     3  C    2.305930   2.217562   0.000000
     4  C    2.945434   2.515703   2.508880   0.000000
     5  C    3.168958   2.831537   1.536623   1.537329   0.000000
     6  C    2.561333   1.534558   2.831823   1.542127   2.552687
     7  O    2.296966   1.440336   1.409668   2.887282   2.400823
     8  O    1.444944   2.341926   1.433109   2.843257   2.433305
     9  O    3.778290   2.396027   3.545106   2.434959   3.129010
    10  O    4.331493   3.726416   3.765883   1.425675   2.456291
    11  O    4.055019   4.107690   2.465508   2.440291   1.424230
    12  H    1.094275   2.217797   3.101737   2.956892   3.579685
    13  H    1.094619   2.188800   2.987873   4.026022   4.119889
    14  H    2.217889   1.091092   3.166279   3.475681   3.859287
    15  H    3.169326   3.180274   1.093166   3.479865   2.196568
    16  H    2.736646   2.875619   2.852717   1.099531   2.145149
    17  H    3.997119   3.301361   2.146521   2.164984   1.094329
    18  H    2.848018   2.160296   3.749635   2.166196   3.472698
    19  H    4.426005   3.190563   3.978238   2.386561   3.177400
    20  H    4.851152   4.408074   3.976230   1.946600   2.494311
    21  H    3.733967   4.143279   2.587814   2.637090   1.943608
                    6          7          8          9         10
     6  C    0.000000
     7  O    2.430729   0.000000
     8  O    3.128708   2.274036   0.000000
     9  O    1.419697   2.829975   4.248500   0.000000
    10  O    2.386145   4.061894   4.244673   2.671370   0.000000
    11  O    3.797317   3.670439   2.989063   4.449655   3.009929
    12  H    2.696361   3.243684   2.085760   4.071429   4.219263
    13  H    3.481045   2.778411   2.079256   4.567986   5.408169
    14  H    2.178170   2.056685   3.266313   2.642663   4.536698
    15  H    3.886666   2.056206   2.070267   4.436262   4.619769
    16  H    2.159604   3.455418   2.636000   3.351070   2.072888
    17  H    2.916592   2.615208   3.359401   2.971364   2.611089
    18  H    1.101963   3.375292   3.707523   2.079005   2.755909
    19  H    1.919476   3.532579   4.729169   0.974757   2.081595
    20  H    3.222213   4.535332   4.490679   3.517044   0.972227
    21  H    3.967518   3.894799   2.607867   4.877267   3.408929
                   11         12         13         14         15
    11  O    0.000000
    12  H    4.294018   0.000000
    13  H    4.977112   1.784890   0.000000
    14  H    5.177461   2.833385   2.434164   0.000000
    15  H    2.715936   4.026207   3.620717   4.003938   0.000000
    16  H    2.589333   2.415124   3.816426   3.853809   3.811221
    17  H    2.020846   4.504548   4.884526   4.180114   2.538025
    18  H    4.555059   2.594532   3.693430   2.525391   4.835345
    19  H    4.324377   4.592863   5.320546   3.576368   4.839045
    20  H    2.580413   4.752999   5.937855   5.308581   4.676578
    21  H    0.973701   3.836547   4.616066   5.232572   2.893234
                   16         17         18         19         20
    16  H    0.000000
    17  H    3.043521   0.000000
    18  H    2.372598   3.937067   0.000000
    19  H    3.354111   2.902732   2.443918   0.000000
    20  H    2.402180   2.613916   3.656304   2.897518   0.000000
    21  H    2.375996   2.820416   4.575205   4.839646   3.055703
                   21
    21  H    0.000000
 Stoichiometry    C6H10O5
 Framework group  C1[X(C6H10O5)]
 Deg. of freedom    57
 Full point group                 C1      NOp   1
 Largest Abelian subgroup         C1      NOp   1
 Largest concise Abelian subgroup C1      NOp   1
                         Standard orientation:                         
 ---------------------------------------------------------------------
 Center     Atomic      Atomic             Coordinates (Angstroms)
 Number     Number       Type             X           Y           Z
 ---------------------------------------------------------------------
      1          6           0       -1.853357   -0.393217    1.027700
      2          6           0       -1.053643   -1.245797    0.028257
      3          6           0       -1.002735    0.838915   -0.726041
      4          6           0        1.015230    0.083402    0.559064
      5          6           0        0.504258    1.054830   -0.517326
      6          6           0        0.438021   -1.335031    0.377318
      7          8           0       -1.220996   -0.478077   -1.178875
      8          8           0       -1.691908    0.951951    0.525384
      9          8           0        1.103899   -2.011975   -0.678094
     10          8           0        2.435420   -0.039170    0.534882
     11          8           0        0.825205    2.401023   -0.180896
     12          1           0       -1.479160   -0.450630    2.054403
     13          1           0       -2.915944   -0.655799    1.015466
     14          1           0       -1.474478   -2.237536   -0.144464
     15          1           0       -1.427060    1.551241   -1.438467
     16          1           0        0.693573    0.468497    1.537434
     17          1           0        1.012557    0.851854   -1.464949
     18          1           0        0.551580   -1.890074    1.322492
     19          1           0        2.034229   -1.728297   -0.613565
     20          1           0        2.797085    0.858799    0.445017
     21          1           0        0.308028    2.623311    0.613591
 ---------------------------------------------------------------------
 Rotational constants (GHZ):      1.4720884      1.2966102      0.8857749
 Standard basis: 6-31+G(d,p) (6D, 7F)
 There are   259 symmetry adapted basis functions of A   symmetry.
 Integral buffers will be    131072 words long.
 Raffenetti 2 integral format.
 Two-electron integral symmetry is turned on.
   259 basis functions,   422 primitive gaussians,   259 cartesian basis functions
    43 alpha electrons       43 beta electrons
       nuclear repulsion energy       727.8441596331 Hartrees.
 NAtoms=   21 NActive=   21 NUniq=   21 SFac= 1.00D+00 NAtFMM=   60 NAOKFM=F Big=F
 ------------------------------------------------------------------------------
 Polarizable Continuum Model (PCM)
 =================================
 Model                : PCM.
 Atomic radii         : UFF (Universal Force Field).
 Polarization charges : Total charges.
 Charge compensation  : None.
 Solution method      : Matrix inversion.
 Cavity type          : Scaled VdW (van der Waals Surface) (Alpha=1.100).
 Cavity algorithm     : GePol (No added spheres)
                        Default sphere list used, NSphG=   21.
                        Lebedev-Laikov grids with approx.  5.0 points / Ang**2.
                        Smoothing algorithm: Karplus/York (Gamma=1.0000).
                        Polarization charges: spherical gaussians, with
                                              point-specific exponents (IZeta= 3).
                        Self-potential: point-specific (ISelfS= 7).
                        Self-field    : sphere-specific E.n sum rule (ISelfD= 2).
 Solvent              : Water, Eps=  78.355300 Eps(inf)=   1.777849
 ------------------------------------------------------------------------------
 One-electron integrals computed using PRISM.
 NBasis=   259 RedAO= T  NBF=   259
 NBsUse=   259 1.00D-06 NBFU=   259
 Harris functional with IExCor=  908 diagonalized for initial guess.
 ExpMin= 4.38D-02 ExpMax= 5.48D+03 ExpMxC= 8.25D+02 IAcc=2 IRadAn=         4 AccDes= 0.00D+00
 HarFok:  IExCor=  908 AccDes= 0.00D+00 IRadAn=         4 IDoV= 1
 ScaDFX=  1.000000  1.000000  1.000000  1.000000
 FoFCou: FMM=F IPFlag=           0 FMFlag=      100000 FMFlg1=           0
         NFxFlg=           0 DoJE=T BraDBF=F KetDBF=T FulRan=T
         Omega=  0.000000  0.000000  1.000000  0.000000  0.000000 ICntrl=     500 IOpCl=  0
         NMat0=    1 NMatS0=    1 NMatT0=    0 NMatD0=    1 NMtDS0=    0 NMtDT0=    0
         I1Cent=           4 NGrid=           0.
 Petite list used in FoFCou.
 Initial guess orbital symmetries:
       Occupied  (A) (A) (A) (A) (A) (A) (A) (A) (A) (A) (A) (A)
                 (A) (A) (A) (A) (A) (A) (A) (A) (A) (A) (A) (A)
                 (A) (A) (A) (A) (A) (A) (A) (A) (A) (A) (A) (A)
                 (A) (A) (A) (A) (A) (A) (A)
       Virtual   (A) (A) (A) (A) (A) (A) (A) (A) (A) (A) (A) (A)
                 (A) (A) (A) (A) (A) (A) (A) (A) (A) (A) (A) (A)
                 (A) (A) (A) (A) (A) (A) (A) (A) (A) (A) (A) (A)
                 (A) (A) (A) (A) (A) (A) (A) (A) (A) (A) (A) (A)
                 (A) (A) (A) (A) (A) (A) (A) (A) (A) (A) (A) (A)
                 (A) (A) (A) (A) (A) (A) (A) (A) (A) (A) (A) (A)
                 (A) (A) (A) (A) (A) (A) (A) (A) (A) (A) (A) (A)
                 (A) (A) (A) (A) (A) (A) (A) (A) (A) (A) (A) (A)
                 (A) (A) (A) (A) (A) (A) (A) (A) (A) (A) (A) (A)
                 (A) (A) (A) (A) (A) (A) (A) (A) (A) (A) (A) (A)
                 (A) (A) (A) (A) (A) (A) (A) (A) (A) (A) (A) (A)
                 (A) (A) (A) (A) (A) (A) (A) (A) (A) (A) (A) (A)
                 (A) (A) (A) (A) (A) (A) (A) (A) (A) (A) (A) (A)
                 (A) (A) (A) (A) (A) (A) (A) (A) (A) (A) (A) (A)
                 (A) (A) (A) (A) (A) (A) (A) (A) (A) (A) (A) (A)
                 (A) (A) (A) (A) (A) (A) (A) (A) (A) (A) (A) (A)
                 (A) (A) (A) (A) (A) (A) (A) (A) (A) (A) (A) (A)
                 (A) (A) (A) (A) (A) (A) (A) (A) (A) (A) (A) (A)
 The electronic state of the initial guess is 1-A.
 Requested convergence on RMS density matrix=1.00D-08 within 128 cycles.
 Requested convergence on MAX density matrix=1.00D-06.
 Requested convergence on             energy=1.00D-06.
 No special actions if energy rises.
 Error on total polarization charges =  0.01155
 SCF Done:  E(RmPW1PW91) =  -610.652338930     A.U. after   12 cycles
             Convg  =    0.4740D-08             -V/T =  2.0090
 Range of M.O.s used for correlation:     1   259
 NBasis=   259 NAE=    43 NBE=    43 NFC=     0 NFV=     0
 NROrb=    259 NOA=    43 NOB=    43 NVA=   216 NVB=   216

 **** Warning!!: The largest alpha MO coefficient is  0.55962253D+02

 NEqPCM:  Using equilibrium solvation (IEInf=0, Eps=  78.3553, EpsInf=   1.7778)
          Differentiating once with respect to magnetic field using GIAOs.
          Electric field/nuclear overlap derivatives assumed to be zero.
 FoFCou: FMM=F IPFlag=           0 FMFlag=    10101102 FMFlg1=           0
         NFxFlg=    40000000 DoJE=F BraDBF=F KetDBF=T FulRan=T
         Omega=  0.000000  0.000000  1.000000  0.000000  0.000000 ICntrl=    6100 IOpCl=  0
         NMat0=    1 NMatS0=    1 NMatT0=    0 NMatD0=    1 NMtDS0=    0 NMtDT0=    0
         I1Cent=           7 NGrid=        1523.
 Symmetry not used in FoFCou.
          There are     3 degrees of freedom in the 1st order CPHF.  IDoFFX=0.
      3 vectors produced by pass  0 Test12= 3.10D-13 3.33D-08 XBig12= 2.05D+01 1.02D+00.
 AX will form     3 AO Fock derivatives at one time.
      3 vectors produced by pass  1 Test12= 3.10D-13 3.33D-08 XBig12= 4.65D-02 2.81D-02.
      3 vectors produced by pass  2 Test12= 3.10D-13 3.33D-08 XBig12= 1.11D-04 1.98D-03.
      3 vectors produced by pass  3 Test12= 3.10D-13 3.33D-08 XBig12= 5.19D-07 1.39D-04.
      3 vectors produced by pass  4 Test12= 3.10D-13 3.33D-08 XBig12= 1.55D-09 5.68D-06.
      3 vectors produced by pass  5 Test12= 3.10D-13 3.33D-08 XBig12= 5.14D-12 3.53D-07.
 Inverted reduced A of dimension    18 with in-core refinement.
 Calculating GIAO nuclear magnetic shielding tensors.
 SCF GIAO Magnetic shielding tensor (ppm):
      1  C    Isotropic =   129.5148   Anisotropy =    63.2310
   XX=   107.3477   YX=     4.7192   ZX=   -12.6196
   XY=     2.6674   YY=   164.9000   ZY=   -14.3197
   XZ=    -7.4414   YZ=   -22.0946   ZZ=   116.2967
   Eigenvalues:    99.9445   116.9311   171.6688
      2  C    Isotropic =   117.6203   Anisotropy =    54.1746
   XX=   104.2326   YX=   -14.2241   ZX=    -4.7330
   XY=    -7.5519   YY=   111.4881   ZY=   -19.6709
   XZ=     2.3958   YZ=   -32.2371   ZZ=   137.1402
   Eigenvalues:    88.8776   110.2467   153.7367
      3  C    Isotropic =    93.0729   Anisotropy =    25.3345
   XX=    83.6333   YX=    15.5438   ZX=   -17.3424
   XY=     1.7656   YY=   101.7932   ZY=    13.8782
   XZ=   -12.9386   YZ=     8.6836   ZZ=    93.7922
   Eigenvalues:    67.2993   101.9568   109.9626
      4  C    Isotropic =   122.2576   Anisotropy =    30.2174
   XX=   140.6584   YX=   -10.9292   ZX=     5.1103
   XY=    -2.5378   YY=   116.0377   ZY=    -2.6766
   XZ=    -3.9455   YZ=     0.2857   ZZ=   110.0768
   Eigenvalues:   109.8251   114.5452   142.4026
      5  C    Isotropic =   119.8284   Anisotropy =    24.2598
   XX=   118.2379   YX=     6.3512   ZX=     5.8747
   XY=    -0.9143   YY=   132.4312   ZY=    -0.4369
   XZ=     7.4599   YZ=    16.0440   ZZ=   108.8161
   Eigenvalues:   104.1343   119.3493   136.0016
      6  C    Isotropic =   124.9508   Anisotropy =    43.0115
   XX=   126.4470   YX=   -17.6631   ZX=   -19.5779
   XY=    -8.3155   YY=   115.6194   ZY=    10.0113
   XZ=    -9.3086   YZ=    17.1008   ZZ=   132.7861
   Eigenvalues:   106.1654   115.0619   153.6251
      7  O    Isotropic =   237.2374   Anisotropy =    50.2833
   XX=   198.8342   YX=    32.3518   ZX=   -30.7370
   XY=    13.6904   YY=   262.3792   ZY=    19.6731
   XZ=   -42.5783   YZ=     6.3203   ZZ=   250.4987
   Eigenvalues:   172.0898   268.8628   270.7596
      8  O    Isotropic =   273.2025   Anisotropy =    98.2319
   XX=   212.2076   YX=    -4.3062   ZX=   -59.3911
   XY=     3.5628   YY=   307.2298   ZY=     7.4158
   XZ=   -54.9788   YZ=    32.1717   ZZ=   300.1699
   Eigenvalues:   183.4648   297.4522   338.6904
      9  O    Isotropic =   309.7812   Anisotropy =    25.1271
   XX=   325.1542   YX=     6.4499   ZX=     3.6559
   XY=     3.6057   YY=   297.0943   ZY=    -3.7625
   XZ=   -10.2269   YZ=     5.0345   ZZ=   307.0950
   Eigenvalues:   296.0882   306.7228   326.5326
     10  O    Isotropic =   308.0154   Anisotropy =    34.6775
   XX=   317.2872   YX=     9.5269   ZX=     4.3168
   XY=    13.5856   YY=   315.5324   ZY=   -19.5388
   XZ=    -2.0945   YZ=   -13.1170   ZZ=   291.2265
   Eigenvalues:   281.8716   311.0408   331.1337
     11  O    Isotropic =   302.0206   Anisotropy =    55.2515
   XX=   272.0495   YX=   -15.2181   ZX=   -21.0183
   XY=    -2.3328   YY=   314.0298   ZY=     8.9376
   XZ=   -20.8501   YZ=    19.7073   ZZ=   319.9827
   Eigenvalues:   263.9727   303.2343   338.8550
     12  H    Isotropic =    27.7712   Anisotropy =     7.2685
   XX=    25.7851   YX=     0.4723   ZX=    -0.6963
   XY=    -0.3512   YY=    25.9313   ZY=    -3.2280
   XZ=    -1.9363   YZ=    -1.2745   ZZ=    31.5973
   Eigenvalues:    24.9261    25.7707    32.6169
     13  H    Isotropic =    27.6485   Anisotropy =    11.6274
   XX=    32.3533   YX=     2.8929   ZX=    -3.5956
   XY=     4.3875   YY=    27.3459   ZY=    -1.5450
   XZ=    -3.1864   YZ=    -1.4962   ZZ=    23.2464
   Eigenvalues:    22.0995    25.4459    35.4001
     14  H    Isotropic =    26.8847   Anisotropy =     8.3192
   XX=    26.2753   YX=     3.4263   ZX=     0.4941
   XY=     2.5095   YY=    30.9127   ZY=     0.0697
   XZ=    -0.2929   YZ=    -1.9337   ZZ=    23.4660
   Eigenvalues:    23.2401    24.9831    32.4308
     15  H    Isotropic =    26.1877   Anisotropy =     7.5595
   XX=    24.3204   YX=    -1.4539   ZX=     1.4214
   XY=    -1.3075   YY=    26.6269   ZY=    -3.3038
   XZ=     1.8461   YZ=    -3.5121   ZZ=    27.6157
   Eigenvalues:    23.6420    23.6937    31.2273
     16  H    Isotropic =    27.9603   Anisotropy =     4.3476
   XX=    30.7476   YX=    -0.7682   ZX=    -0.9294
   XY=     0.0752   YY=    24.4796   ZY=     1.0623
   XZ=     0.3053   YZ=     2.2964   ZZ=    28.6537
   Eigenvalues:    23.8806    29.1417    30.8587
     17  H    Isotropic =    28.0941   Anisotropy =     2.7155
   XX=    25.9973   YX=     1.0858   ZX=    -1.3312
   XY=     1.2730   YY=    29.1674   ZY=     0.6656
   XZ=    -1.9575   YZ=    -0.0529   ZZ=    29.1176
   Eigenvalues:    24.9464    29.4314    29.9044
     18  H    Isotropic =    27.5756   Anisotropy =     7.1872
   XX=    24.5004   YX=    -1.0437   ZX=    -1.3616
   XY=    -2.0683   YY=    27.1852   ZY=    -1.9661
   XZ=    -0.2847   YZ=    -3.2760   ZZ=    31.0411
   Eigenvalues:    23.2932    27.0665    32.3670
     19  H    Isotropic =    28.3581   Anisotropy =    17.4745
   XX=    39.3760   YX=     3.1704   ZX=    -0.9965
   XY=     2.8816   YY=    25.5136   ZY=     6.0305
   XZ=    -1.2580   YZ=     4.5057   ZZ=    20.1847
   Eigenvalues:    16.6563    28.4103    40.0078
     20  H    Isotropic =    29.0306   Anisotropy =    18.4939
   XX=    31.3987   YX=     6.9157   ZX=     0.6665
   XY=     6.4664   YY=    36.8120   ZY=    -0.9979
   XZ=     1.3106   YZ=    -2.5176   ZZ=    18.8812
   Eigenvalues:    18.4600    27.2720    41.3599
     21  H    Isotropic =    30.2226   Anisotropy =    15.7843
   XX=    27.5104   YX=    -0.2945   ZX=    -6.5668
   XY=    -0.8420   YY=    29.9780   ZY=     6.2084
   XZ=    -7.0306   YZ=     6.4386   ZZ=    33.1793
   Eigenvalues:    21.5607    28.3616    40.7454
 End of Minotr Frequency-dependent properties file   721 does not exist.
 End of Minotr Frequency-dependent properties file   722 does not exist.

 **********************************************************************

            Population analysis using the SCF density.

 **********************************************************************

 Orbital symmetries:
       Occupied  (A) (A) (A) (A) (A) (A) (A) (A) (A) (A) (A) (A)
                 (A) (A) (A) (A) (A) (A) (A) (A) (A) (A) (A) (A)
                 (A) (A) (A) (A) (A) (A) (A) (A) (A) (A) (A) (A)
                 (A) (A) (A) (A) (A) (A) (A)
       Virtual   (A) (A) (A) (A) (A) (A) (A) (A) (A) (A) (A) (A)
                 (A) (A) (A) (A) (A) (A) (A) (A) (A) (A) (A) (A)
                 (A) (A) (A) (A) (A) (A) (A) (A) (A) (A) (A) (A)
                 (A) (A) (A) (A) (A) (A) (A) (A) (A) (A) (A) (A)
                 (A) (A) (A) (A) (A) (A) (A) (A) (A) (A) (A) (A)
                 (A) (A) (A) (A) (A) (A) (A) (A) (A) (A) (A) (A)
                 (A) (A) (A) (A) (A) (A) (A) (A) (A) (A) (A) (A)
                 (A) (A) (A) (A) (A) (A) (A) (A) (A) (A) (A) (A)
                 (A) (A) (A) (A) (A) (A) (A) (A) (A) (A) (A) (A)
                 (A) (A) (A) (A) (A) (A) (A) (A) (A) (A) (A) (A)
                 (A) (A) (A) (A) (A) (A) (A) (A) (A) (A) (A) (A)
                 (A) (A) (A) (A) (A) (A) (A) (A) (A) (A) (A) (A)
                 (A) (A) (A) (A) (A) (A) (A) (A) (A) (A) (A) (A)
                 (A) (A) (A) (A) (A) (A) (A) (A) (A) (A) (A) (A)
                 (A) (A) (A) (A) (A) (A) (A) (A) (A) (A) (A) (A)
                 (A) (A) (A) (A) (A) (A) (A) (A) (A) (A) (A) (A)
                 (A) (A) (A) (A) (A) (A) (A) (A) (A) (A) (A) (A)
                 (A) (A) (A) (A) (A) (A) (A) (A) (A) (A) (A) (A)
 The electronic state is 1-A.
 Alpha  occ. eigenvalues --  -19.27909 -19.27294 -19.27194 -19.27037 -19.25840
 Alpha  occ. eigenvalues --  -10.36074 -10.32127 -10.31761 -10.31676 -10.31327
 Alpha  occ. eigenvalues --  -10.31107  -1.14603  -1.09025  -1.07354  -1.05566
 Alpha  occ. eigenvalues --   -1.04148  -0.82845  -0.81135  -0.70807  -0.68597
 Alpha  occ. eigenvalues --   -0.65206  -0.61361  -0.58137  -0.55272  -0.54372
 Alpha  occ. eigenvalues --   -0.52999  -0.50261  -0.49440  -0.48020  -0.47015
 Alpha  occ. eigenvalues --   -0.44378  -0.43577  -0.42384  -0.40738  -0.39001
 Alpha  occ. eigenvalues --   -0.38762  -0.36886  -0.36185  -0.33709  -0.32023
 Alpha  occ. eigenvalues --   -0.30941  -0.29754  -0.27679
 Alpha virt. eigenvalues --    0.00619   0.01300   0.02054   0.02363   0.04194
 Alpha virt. eigenvalues --    0.04906   0.05041   0.05467   0.05835   0.07736
 Alpha virt. eigenvalues --    0.08596   0.09631   0.09953   0.10238   0.11570
 Alpha virt. eigenvalues --    0.12026   0.12637   0.13529   0.13812   0.14327
 Alpha virt. eigenvalues --    0.14982   0.15387   0.16077   0.16602   0.17032
 Alpha virt. eigenvalues --    0.17748   0.19144   0.19758   0.20201   0.21176
 Alpha virt. eigenvalues --    0.21254   0.21998   0.22415   0.22943   0.23802
 Alpha virt. eigenvalues --    0.24596   0.25055   0.25992   0.26959   0.27644
 Alpha virt. eigenvalues --    0.28138   0.28355   0.29615   0.30026   0.30395
 Alpha virt. eigenvalues --    0.30858   0.31502   0.32111   0.33381   0.33564
 Alpha virt. eigenvalues --    0.34491   0.35361   0.35728   0.36584   0.36901
 Alpha virt. eigenvalues --    0.37513   0.38162   0.38820   0.39287   0.39662
 Alpha virt. eigenvalues --    0.41898   0.42478   0.43771   0.44505   0.46390
 Alpha virt. eigenvalues --    0.48282   0.64262   0.66994   0.67151   0.68999
 Alpha virt. eigenvalues --    0.70005   0.71383   0.74770   0.76253   0.77559
 Alpha virt. eigenvalues --    0.79355   0.81417   0.83846   0.84572   0.86181
 Alpha virt. eigenvalues --    0.87804   0.89988   0.95236   0.96754   0.99012
 Alpha virt. eigenvalues --    1.02036   1.03044   1.04465   1.05706   1.07320
 Alpha virt. eigenvalues --    1.08073   1.09706   1.11182   1.13533   1.15080
 Alpha virt. eigenvalues --    1.19505   1.20608   1.21231   1.25667   1.26419
 Alpha virt. eigenvalues --    1.28346   1.28663   1.31550   1.32546   1.33782
 Alpha virt. eigenvalues --    1.35592   1.36302   1.38002   1.39450   1.41903
 Alpha virt. eigenvalues --    1.43084   1.44684   1.46720   1.48022   1.51441
 Alpha virt. eigenvalues --    1.52791   1.54932   1.55808   1.58270   1.58594
 Alpha virt. eigenvalues --    1.62076   1.63685   1.65325   1.66089   1.68927
 Alpha virt. eigenvalues --    1.70569   1.73415   1.75022   1.76958   1.78498
 Alpha virt. eigenvalues --    1.82895   1.83673   1.85249   1.87195   1.87954
 Alpha virt. eigenvalues --    1.88648   1.92919   1.93632   1.97625   2.00611
 Alpha virt. eigenvalues --    2.01517   2.02611   2.04662   2.07173   2.07273
 Alpha virt. eigenvalues --    2.09061   2.11877   2.15267   2.16993   2.19160
 Alpha virt. eigenvalues --    2.19653   2.20965   2.22648   2.24652   2.28832
 Alpha virt. eigenvalues --    2.31553   2.35471   2.38998   2.42097   2.43455
 Alpha virt. eigenvalues --    2.44176   2.47117   2.47715   2.50258   2.51772
 Alpha virt. eigenvalues --    2.53923   2.55515   2.58445   2.61371   2.63691
 Alpha virt. eigenvalues --    2.64187   2.66384   2.67129   2.67875   2.70586
 Alpha virt. eigenvalues --    2.74734   2.76573   2.78593   2.80006   2.81034
 Alpha virt. eigenvalues --    2.82230   2.85425   2.86511   2.88630   2.90463
 Alpha virt. eigenvalues --    2.95528   2.96647   2.98291   2.99975   3.02581
 Alpha virt. eigenvalues --    3.04972   3.09562   3.10086   3.12745   3.23247
 Alpha virt. eigenvalues --    3.35045   3.40152   3.41228   3.47058   3.48857
 Alpha virt. eigenvalues --    3.51714   3.52911   3.55674   3.59072   3.60493
 Alpha virt. eigenvalues --    4.31974   4.33694   4.40084   4.46170   4.50447
 Alpha virt. eigenvalues --    4.59858   4.63171   4.73854   4.83455   4.91187
 Alpha virt. eigenvalues --    4.98565
          Condensed to atoms (all electrons):
              1          2          3          4          5          6
     1  C    5.611442  -0.288766  -0.532149  -0.200242   0.372271   0.114978
     2  C   -0.288766   6.895624  -0.192748   0.263174  -0.244899  -0.670563
     3  C   -0.532149  -0.192748   6.936011   0.293641  -1.404595   0.274442
     4  C   -0.200242   0.263174   0.293641   6.433984  -0.537961  -0.259084
     5  C    0.372271  -0.244899  -1.404595  -0.537961   7.506034  -0.311550
     6  C    0.114978  -0.670563   0.274442  -0.259084  -0.311550   6.400538
     7  O   -0.038006   0.138512   0.305361  -0.073172  -0.056745  -0.089945
     8  O    0.195525  -0.116137   0.318024   0.005046  -0.198754  -0.019921
     9  O    0.043219  -0.176504  -0.087588  -0.145041   0.139788   0.281275
    10  O   -0.009362   0.041019   0.018015   0.133517   0.001494  -0.130650
    11  O    0.015843  -0.017656  -0.057532  -0.062313   0.207324   0.032894
    12  H    0.455015  -0.157531   0.011275  -0.044181   0.021627   0.072875
    13  H    0.384403   0.001617  -0.004230   0.010252  -0.003760  -0.005906
    14  H    0.016987   0.285542   0.012188   0.012849  -0.004575   0.023630
    15  H    0.013712   0.032168   0.329896   0.033745  -0.004981  -0.027508
    16  H    0.008958  -0.030316  -0.016265   0.286964   0.022675   0.014834
    17  H    0.004291  -0.019065  -0.060989  -0.134908   0.472365   0.052027
    18  H    0.032813  -0.040921  -0.045587  -0.004640   0.076493   0.279357
    19  H   -0.006402   0.022244  -0.001988  -0.040634  -0.021318   0.039086
    20  H    0.000741  -0.011355   0.021623   0.050688  -0.083176   0.028612
    21  H    0.006051  -0.006704  -0.046119  -0.071613   0.084998   0.014447
              7          8          9         10         11         12
     1  C   -0.038006   0.195525   0.043219  -0.009362   0.015843   0.455015
     2  C    0.138512  -0.116137  -0.176504   0.041019  -0.017656  -0.157531
     3  C    0.305361   0.318024  -0.087588   0.018015  -0.057532   0.011275
     4  C   -0.073172   0.005046  -0.145041   0.133517  -0.062313  -0.044181
     5  C   -0.056745  -0.198754   0.139788   0.001494   0.207324   0.021627
     6  C   -0.089945  -0.019921   0.281275  -0.130650   0.032894   0.072875
     7  O    8.235968  -0.052018   0.017084  -0.002347   0.007065   0.011921
     8  O   -0.052018   8.372747   0.003301   0.000188  -0.002964  -0.047745
     9  O    0.017084   0.003301   8.285510  -0.009173  -0.002967  -0.000016
    10  O   -0.002347   0.000188  -0.009173   8.338294  -0.022046  -0.000178
    11  O    0.007065  -0.002964  -0.002967  -0.022046   8.232683   0.000410
    12  H    0.011921  -0.047745  -0.000016  -0.000178   0.000410   0.524230
    13  H   -0.003858  -0.048390  -0.000259   0.000016  -0.000138  -0.035589
    14  H   -0.036455   0.006806   0.001355  -0.000677   0.000053   0.001975
    15  H   -0.044691  -0.045322   0.000278  -0.000757  -0.000566  -0.000237
    16  H   -0.001239   0.007704   0.007211  -0.033656  -0.012036   0.001538
    17  H   -0.000481   0.011661   0.002883   0.004225  -0.057277  -0.000019
    18  H    0.007832   0.000204  -0.039049  -0.000831  -0.000707   0.000194
    19  H   -0.002153   0.000131   0.238976   0.024063  -0.000144  -0.000006
    20  H    0.000043  -0.000106  -0.000766   0.232430   0.015718   0.000001
    21  H   -0.000351   0.017853   0.000134   0.000219   0.246289  -0.000084
             13         14         15         16         17         18
     1  C    0.384403   0.016987   0.013712   0.008958   0.004291   0.032813
     2  C    0.001617   0.285542   0.032168  -0.030316  -0.019065  -0.040921
     3  C   -0.004230   0.012188   0.329896  -0.016265  -0.060989  -0.045587
     4  C    0.010252   0.012849   0.033745   0.286964  -0.134908  -0.004640
     5  C   -0.003760  -0.004575  -0.004981   0.022675   0.472365   0.076493
     6  C   -0.005906   0.023630  -0.027508   0.014834   0.052027   0.279357
     7  O   -0.003858  -0.036455  -0.044691  -0.001239  -0.000481   0.007832
     8  O   -0.048390   0.006806  -0.045322   0.007704   0.011661   0.000204
     9  O   -0.000259   0.001355   0.000278   0.007211   0.002883  -0.039049
    10  O    0.000016  -0.000677  -0.000757  -0.033656   0.004225  -0.000831
    11  O   -0.000138   0.000053  -0.000566  -0.012036  -0.057277  -0.000707
    12  H   -0.035589   0.001975  -0.000237   0.001538  -0.000019   0.000194
    13  H    0.525403  -0.003051   0.000312   0.000045   0.000020  -0.000048
    14  H   -0.003051   0.493434   0.000011  -0.000150  -0.000031  -0.002377
    15  H    0.000312   0.000011   0.526297  -0.000298  -0.002733   0.000022
    16  H    0.000045  -0.000150  -0.000298   0.558971   0.004215  -0.003775
    17  H    0.000020  -0.000031  -0.002733   0.004215   0.519559  -0.000187
    18  H   -0.000048  -0.002377   0.000022  -0.003775  -0.000187   0.567940
    19  H    0.000004  -0.000084   0.000000   0.000539   0.000565  -0.002563
    20  H    0.000000   0.000005   0.000001  -0.004107  -0.001438  -0.000208
    21  H    0.000018   0.000000  -0.000375   0.004802   0.006761  -0.000011
             19         20         21
     1  C   -0.006402   0.000741   0.006051
     2  C    0.022244  -0.011355  -0.006704
     3  C   -0.001988   0.021623  -0.046119
     4  C   -0.040634   0.050688  -0.071613
     5  C   -0.021318  -0.083176   0.084998
     6  C    0.039086   0.028612   0.014447
     7  O   -0.002153   0.000043  -0.000351
     8  O    0.000131  -0.000106   0.017853
     9  O    0.238976  -0.000766   0.000134
    10  O    0.024063   0.232430   0.000219
    11  O   -0.000144   0.015718   0.246289
    12  H   -0.000006   0.000001  -0.000084
    13  H    0.000004   0.000000   0.000018
    14  H   -0.000084   0.000005   0.000000
    15  H    0.000000   0.000001  -0.000375
    16  H    0.000539  -0.004107   0.004802
    17  H    0.000565  -0.001438   0.006761
    18  H   -0.002563  -0.000208  -0.000011
    19  H    0.361081  -0.000891   0.000001
    20  H   -0.000891   0.359459  -0.000445
    21  H    0.000001  -0.000445   0.365042
 Mulliken atomic charges:
              1
     1  C   -0.201324
     2  C    0.293265
     3  C   -0.070688
     4  C    0.049928
     5  C   -0.032754
     6  C   -0.113869
     7  O   -0.322327
     8  O   -0.407836
     9  O   -0.559651
    10  O   -0.583802
    11  O   -0.521934
    12  H    0.184525
    13  H    0.183137
    14  H    0.192566
    15  H    0.191025
    16  H    0.183383
    17  H    0.198556
    18  H    0.176046
    19  H    0.389494
    20  H    0.393173
    21  H    0.379087
 Sum of Mulliken atomic charges =   0.00000
 Mulliken charges with hydrogens summed into heavy atoms:
              1
     1  C    0.166338
     2  C    0.485831
     3  C    0.120337
     4  C    0.233311
     5  C    0.165802
     6  C    0.062177
     7  O   -0.322327
     8  O   -0.407836
     9  O   -0.170157
    10  O   -0.190629
    11  O   -0.142847
 Sum of Mulliken charges with hydrogens summed into heavy atoms =   0.00000
 Electronic spatial extent (au):  <R**2>=           1428.6641
 Charge=              0.0000 electrons
 Dipole moment (field-independent basis, Debye):
    X=             -0.5346    Y=              0.5207    Z=              3.4557  Tot=              3.5354
 Quadrupole moment (field-independent basis, Debye-Ang):
   XX=            -63.8860   YY=            -69.2033   ZZ=            -64.2043
   XY=              4.7761   XZ=             -2.3946   YZ=             -3.2639
 Traceless Quadrupole moment (field-independent basis, Debye-Ang):
   XX=              1.8785   YY=             -3.4388   ZZ=              1.5602
   XY=              4.7761   XZ=             -2.3946   YZ=             -3.2639
 Octapole moment (field-independent basis, Debye-Ang**2):
  XXX=             12.2363  YYY=              2.8925  ZZZ=              6.3126  XYY=             -8.9826
  XXY=             -3.2057  XXZ=             -2.6731  XZZ=              1.0886  YZZ=              8.5650
  YYZ=             15.5340  XYZ=              9.5589
 Hexadecapole moment (field-independent basis, Debye-Ang**3):
 XXXX=           -749.4293 YYYY=           -731.4277 ZZZZ=           -269.1127 XXXY=             34.9757
 XXXZ=            -22.5728 YYYX=             -3.1710 YYYZ=             19.8643 ZZZX=             -8.3303
 ZZZY=             -5.7333 XXYY=           -238.4042 XXZZ=           -180.2135 YYZZ=           -157.2140
 XXYZ=              0.9449 YYXZ=             17.5065 ZZXY=             -0.8890
 N-N= 7.278441596331D+02 E-N=-2.885382798786D+03  KE= 6.052164734026D+02
 1\1\GINC-COMPUTE-8-20\SP\RmPW1PW91\6-31+G(d,p)\C6H10O5\MMARCARINO.IQUI
 R\12-Apr-2019\0\\# mpw1pw91/6-31+g** nmr scrf=(pcm,solvent=water)\\com
 ment\\0,1\C,0,1.853357,-0.393218,-1.0277\C,0,1.053642,-1.245798,-0.028
 257\C,0,1.002736,0.838914,0.726041\C,0,-1.01523,0.083403,-0.559064\C,0
 ,-0.504257,1.05483,0.517326\C,0,-0.438022,-1.335031,-0.377318\O,0,1.22
 0996,-0.478078,1.178875\O,0,1.691909,0.95195,-0.525384\O,0,-1.1039,-2.
 011974,0.678094\O,0,-2.43542,-0.039168,-0.534882\O,0,-0.825203,2.40102
 4,0.180896\H,0,1.47916,-0.450631,-2.054403\H,0,2.915944,-0.655801,-1.0
 15466\H,0,1.474477,-2.237537,0.144464\H,0,1.427061,1.55124,1.438467\H,
 0,-0.693573,0.468497,-1.537434\H,0,-1.012556,0.851855,1.464949\H,0,-0.
 551581,-1.890074,-1.322492\H,0,-2.03423,-1.728296,0.613565\H,0,-2.7970
 84,0.858801,-0.445017\H,0,-0.308026,2.623311,-0.613591\\Version=EM64L-
 G09RevC.01\State=1-A\HF=-610.6523389\RMSD=4.740e-09\Dipole=0.2103369,0
 .2048474,-1.3595769\Quadrupole=1.3966365,-2.5566285,1.159992,-3.550933
 6,-1.7803031,2.4266644\PG=C01 [X(C6H10O5)]\\@


 IT'S WHAT A FELLER THINKS HE KNOWS THAT HURTS HIM...
                    ------
           KIN HUBBARD
 Job cpu time:  0 days  0 hours 21 minutes  4.0 seconds.
 File lengths (MBytes):  RWF=     82 Int=      0 D2E=      0 Chk=      5 Scr=      1
 Normal termination of Gaussian 09 at Fri Apr 12 12:26:36 2019.
