 Entering Gaussian System, Link 0=g09
 Input=/home/asarotti.iquir/SCF3/08_SRR_Levo05_OPTB_energy_b3lyp_smd.gjc
 Output=/home/asarotti.iquir/SCF3/08_SRR_Levo05_OPTB_energy_b3lyp_smd.log
 Initial command:
 /share/apps/Gaussian09/EM64T.SSE4.2-enabled/g09/l1.exe /tmp/Gau-36083.inp -scrdir=/tmp/
 Entering Link 1 = /share/apps/Gaussian09/EM64T.SSE4.2-enabled/g09/l1.exe PID=     36084.
  
 Copyright (c) 1988,1990,1992,1993,1995,1998,2003,2009,2011,
            Gaussian, Inc.  All Rights Reserved.
  
 This is part of the Gaussian(R) 09 program.  It is based on
 the Gaussian(R) 03 system (copyright 2003, Gaussian, Inc.),
 the Gaussian(R) 98 system (copyright 1998, Gaussian, Inc.),
 the Gaussian(R) 94 system (copyright 1995, Gaussian, Inc.),
 the Gaussian 92(TM) system (copyright 1992, Gaussian, Inc.),
 the Gaussian 90(TM) system (copyright 1990, Gaussian, Inc.),
 the Gaussian 88(TM) system (copyright 1988, Gaussian, Inc.),
 the Gaussian 86(TM) system (copyright 1986, Carnegie Mellon
 University), and the Gaussian 82(TM) system (copyright 1983,
 Carnegie Mellon University). Gaussian is a federally registered
 trademark of Gaussian, Inc.
  
 This software contains proprietary and confidential information,
 including trade secrets, belonging to Gaussian, Inc.
  
 This software is provided under written license and may be
 used, copied, transmitted, or stored only in accord with that
 written license.
  
 The following legend is applicable only to US Government
 contracts under FAR:
  
                    RESTRICTED RIGHTS LEGEND
  
 Use, reproduction and disclosure by the US Government is
 subject to restrictions as set forth in subparagraphs (a)
 and (c) of the Commercial Computer Software - Restricted
 Rights clause in FAR 52.227-19.
  
 Gaussian, Inc.
 340 Quinnipiac St., Bldg. 40, Wallingford CT 06492
  
  
 ---------------------------------------------------------------
 Warning -- This program may not be used in any manner that
 competes with the business of Gaussian, Inc. or will provide
 assistance to any competitor of Gaussian, Inc.  The licensee
 of this program is prohibited from giving any competitor of
 Gaussian, Inc. access to this program.  By using this program,
 the user acknowledges that Gaussian, Inc. is engaged in the
 business of creating and licensing software in the field of
 computational chemistry and represents and warrants to the
 licensee that it is not a competitor of Gaussian, Inc. and that
 it will not use this program in any manner prohibited above.
 ---------------------------------------------------------------
  

 Cite this work as:
 Gaussian 09, Revision C.01,
 M. J. Frisch, G. W. Trucks, H. B. Schlegel, G. E. Scuseria, 
 M. A. Robb, J. R. Cheeseman, G. Scalmani, V. Barone, B. Mennucci, 
 G. A. Petersson, H. Nakatsuji, M. Caricato, X. Li, H. P. Hratchian, 
 A. F. Izmaylov, J. Bloino, G. Zheng, J. L. Sonnenberg, M. Hada, 
 M. Ehara, K. Toyota, R. Fukuda, J. Hasegawa, M. Ishida, T. Nakajima, 
 Y. Honda, O. Kitao, H. Nakai, T. Vreven, J. A. Montgomery, Jr., 
 J. E. Peralta, F. Ogliaro, M. Bearpark, J. J. Heyd, E. Brothers, 
 K. N. Kudin, V. N. Staroverov, T. Keith, R. Kobayashi, J. Normand, 
 K. Raghavachari, A. Rendell, J. C. Burant, S. S. Iyengar, J. Tomasi, 
 M. Cossi, N. Rega, J. M. Millam, M. Klene, J. E. Knox, J. B. Cross, 
 V. Bakken, C. Adamo, J. Jaramillo, R. Gomperts, R. E. Stratmann, 
 O. Yazyev, A. J. Austin, R. Cammi, C. Pomelli, J. W. Ochterski, 
 R. L. Martin, K. Morokuma, V. G. Zakrzewski, G. A. Voth, 
 P. Salvador, J. J. Dannenberg, S. Dapprich, A. D. Daniels, 
 O. Farkas, J. B. Foresman, J. V. Ortiz, J. Cioslowski, 
 and D. J. Fox, Gaussian, Inc., Wallingford CT, 2010.
 
 ******************************************
 Gaussian 09:  EM64L-G09RevC.01 23-Sep-2011
                15-Apr-2019 
 ******************************************
 %nprocshared=4
 Will use up to    4 processors via shared memory.
 -----------------------------------------------------------
 # B3LYP/6-31+G** test scrf=(pcm,solvent=water,smd,dovacuum)
 -----------------------------------------------------------
 1/38=1/1;
 2/12=2,17=6,18=5,40=1/2;
 3/5=1,6=6,7=111,11=2,16=1,25=1,30=1,70=32101,72=1,74=-5/1,2,3;
 4//1;
 5/5=2,38=5,53=1/2;
 6/7=2,8=2,9=2,10=2,28=1/1;
 99/5=1,9=1/99;
 -------
 comment
 -------
 Charge =  0 Multiplicity = 1
 Symbolic Z-Matrix:
 6                    -1.89726  -0.33635   1.01609 
 6                    -1.13478  -1.18269  -0.014 
 6                    -0.96793   0.93012  -0.67151 
 6                     1.00974   0.02884   0.55436 
 6                     0.55337   1.0434   -0.4968 
 6                     0.34619  -1.3565    0.34808 
 8                    -1.25352  -0.35388  -1.18616 
 8                    -1.64876   1.01654   0.58258 
 8                     0.99251  -2.0538   -0.7048 
 8                     2.43538  -0.08065   0.44203 
 8                     0.88588   2.37219  -0.12308 
 1                    -1.53929  -0.46541   2.04246 
 1                    -2.97321  -0.53783   0.98186 
 1                    -1.60136  -2.14437  -0.23388 
 1                    -1.35918   1.69441  -1.34818 
 1                     0.73903   0.42614   1.53852 
 1                     1.00914   0.78505  -1.46387 
 1                     0.41478  -1.93022   1.28767 
 1                     1.92978  -1.79016  -0.63755 
 1                     2.78784  -0.38095   1.29593 
 1                     1.84467   2.37922   0.03519 
 
                          Input orientation:                          
 ---------------------------------------------------------------------
 Center     Atomic      Atomic             Coordinates (Angstroms)
 Number     Number       Type             X           Y           Z
 ---------------------------------------------------------------------
      1          6           0       -1.897256   -0.336346    1.016091
      2          6           0       -1.134785   -1.182690   -0.014004
      3          6           0       -0.967932    0.930115   -0.671510
      4          6           0        1.009735    0.028838    0.554361
      5          6           0        0.553367    1.043395   -0.496798
      6          6           0        0.346192   -1.356500    0.348079
      7          8           0       -1.253517   -0.353881   -1.186159
      8          8           0       -1.648761    1.016539    0.582575
      9          8           0        0.992506   -2.053800   -0.704802
     10          8           0        2.435376   -0.080645    0.442028
     11          8           0        0.885878    2.372192   -0.123075
     12          1           0       -1.539288   -0.465409    2.042456
     13          1           0       -2.973208   -0.537828    0.981858
     14          1           0       -1.601362   -2.144370   -0.233878
     15          1           0       -1.359178    1.694409   -1.348176
     16          1           0        0.739034    0.426142    1.538520
     17          1           0        1.009141    0.785054   -1.463867
     18          1           0        0.414783   -1.930224    1.287672
     19          1           0        1.929777   -1.790162   -0.637554
     20          1           0        2.787838   -0.380947    1.295927
     21          1           0        1.844666    2.379221    0.035187
 ---------------------------------------------------------------------
                    Distance matrix (angstroms):
                    1          2          3          4          5
     1  C    0.000000
     2  C    1.535824   0.000000
     3  C    2.305551   2.219031   0.000000
     4  C    2.965999   2.527806   2.495241   0.000000
     5  C    3.193442   2.835208   1.535483   1.530534   0.000000
     6  C    2.553432   1.534473   2.827559   1.549840   2.552692
     7  O    2.294474   1.440475   1.412469   2.880658   2.385881
     8  O    1.442215   2.335955   1.429590   2.836186   2.452577
     9  O    3.776486   2.400292   3.570459   2.433756   3.135080
    10  O    4.377971   3.764109   3.720767   1.434245   2.384705
    11  O    4.047186   4.090496   2.411841   2.442451   1.419836
    12  H    1.094634   2.215207   3.104762   2.992695   3.619876
    13  H    1.095189   2.188010   2.984898   4.045701   4.138046
    14  H    2.217865   1.091269   3.169418   3.487403   3.856660
    15  H    3.162792   3.179318   1.093204   3.464899   2.192371
    16  H    2.793626   2.917168   2.837597   1.095307   2.134946
    17  H    3.981818   3.251236   2.134875   2.155251   1.099860
    18  H    2.821299   2.157389   3.732537   2.174773   3.470727
    19  H    4.415235   3.185809   3.974642   2.361334   3.153310
    20  H    4.693656   4.212562   4.437961   1.969643   3.199293
    21  H    4.726358   4.644002   3.241919   2.547735   1.932587
                    6          7          8          9         10
     6  C    0.000000
     7  O    2.432735   0.000000
     8  O    3.109042   2.272155   0.000000
     9  O    1.418629   2.857630   4.249778   0.000000
    10  O    2.449760   4.041483   4.231281   2.700080   0.000000
    11  O    3.796892   3.624725   2.959752   4.465331   2.955790
    12  H    2.687004   3.243156   2.083124   4.059605   4.302019
    13  H    3.477113   2.773350   2.080780   4.568356   5.454651
    14  H    2.179995   2.057592   3.264994   2.637826   4.583783
    15  H    3.885050   2.057403   2.066680   4.471400   4.555687
    16  H    2.179286   3.464473   2.638932   3.353633   2.082475
    17  H    2.882517   2.548316   3.362433   2.938630   2.532986
    18  H    1.103041   3.374600   3.665895   2.078217   2.866854
    19  H    1.915013   3.535142   4.708739   0.975963   2.084125
    20  H    2.794952   4.742788   4.705874   3.166160   0.971367
    21  H    4.037194   4.308163   3.789534   4.574433   2.562303
                   11         12         13         14         15
    11  O    0.000000
    12  H    4.315430   0.000000
    13  H    4.957987   1.785004   0.000000
    14  H    5.157322   2.829215   2.437407   0.000000
    15  H    2.645853   4.024132   3.607913   4.004565   0.000000
    16  H    2.563118   2.497912   3.875545   3.902099   3.787348
    17  H    2.081327   4.511369   4.857025   4.112071   2.539537
    18  H    4.552244   2.556125   3.675700   2.534919   4.820020
    19  H    4.321991   4.579502   5.313200   3.571745   4.844011
    20  H    3.634665   4.391863   5.771733   4.971422   5.338176
    21  H    0.971787   4.855120   5.711153   5.693012   3.556301
                   16         17         18         19         20
    16  H    0.000000
    17  H    3.035804   0.000000
    18  H    2.391762   3.911133   0.000000
    19  H    3.326435   2.856939   2.453838   0.000000
    20  H    2.215365   3.484219   2.834028   2.541752   0.000000
    21  H    2.701287   2.342356   4.710053   4.224166   3.177667
                   21
    21  H    0.000000
 Stoichiometry    C6H10O5
 Framework group  C1[X(C6H10O5)]
 Deg. of freedom    57
 Full point group                 C1      NOp   1
 Largest Abelian subgroup         C1      NOp   1
 Largest concise Abelian subgroup C1      NOp   1
                         Standard orientation:                         
 ---------------------------------------------------------------------
 Center     Atomic      Atomic             Coordinates (Angstroms)
 Number     Number       Type             X           Y           Z
 ---------------------------------------------------------------------
      1          6           0       -1.897256   -0.336346    1.016091
      2          6           0       -1.134785   -1.182690   -0.014004
      3          6           0       -0.967932    0.930115   -0.671510
      4          6           0        1.009735    0.028838    0.554361
      5          6           0        0.553367    1.043395   -0.496798
      6          6           0        0.346192   -1.356500    0.348079
      7          8           0       -1.253517   -0.353881   -1.186159
      8          8           0       -1.648761    1.016539    0.582575
      9          8           0        0.992506   -2.053800   -0.704802
     10          8           0        2.435376   -0.080645    0.442028
     11          8           0        0.885878    2.372192   -0.123075
     12          1           0       -1.539288   -0.465409    2.042456
     13          1           0       -2.973208   -0.537828    0.981858
     14          1           0       -1.601362   -2.144370   -0.233878
     15          1           0       -1.359178    1.694409   -1.348176
     16          1           0        0.739034    0.426142    1.538520
     17          1           0        1.009141    0.785054   -1.463867
     18          1           0        0.414783   -1.930224    1.287672
     19          1           0        1.929777   -1.790162   -0.637554
     20          1           0        2.787838   -0.380947    1.295927
     21          1           0        1.844666    2.379221    0.035187
 ---------------------------------------------------------------------
 Rotational constants (GHZ):      1.4792341      1.2890036      0.8817640
 Standard basis: 6-31+G(d,p) (6D, 7F)
 There are   259 symmetry adapted basis functions of A   symmetry.
 Integral buffers will be    131072 words long.
 Raffenetti 2 integral format.
 Two-electron integral symmetry is turned on.
   259 basis functions,   422 primitive gaussians,   259 cartesian basis functions
    43 alpha electrons       43 beta electrons
       nuclear repulsion energy       727.1139849579 Hartrees.
 NAtoms=   21 NActive=   21 NUniq=   21 SFac= 1.00D+00 NAtFMM=   60 NAOKFM=F Big=F
 ------------------------------------------------------------------------------
 Polarizable Continuum Model (PCM)
 =================================
 Model                : C-PCM.
 Atomic radii         : SMD-Coulomb.
 Polarization charges : Total charges.
 Charge compensation  : None.
 Solution method      : Matrix inversion.
 Cavity type          : VdW (van der Waals Surface) (Alpha=1.000).
 Cavity algorithm     : GePol (No added spheres)
                        Default sphere list used, NSphG=   21.
                        Lebedev-Laikov grids with approx.  5.0 points / Ang**2.
                        Smoothing algorithm: Karplus/York (Gamma=1.0000).
                        Polarization charges: spherical gaussians, with
                                              point-specific exponents (IZeta= 3).
                        Self-potential: point-specific (ISelfS= 7).
                        Self-field    : sphere-specific E.n sum rule (ISelfD= 2).
 Solvent              : Water, Eps=  78.355300 Eps(inf)=   1.777849
 ------------------------------------------------------------------------------
 ------------------------------------------------------------------------------
 Atomic radii for non-electrostatic terms: SMD-CDS.
 ------------------------------------------------------------------------------
 Nuclear repulsion after PCM non-electrostatic terms =      727.1190553545 Hartrees.
 One-electron integrals computed using PRISM.
 NBasis=   259 RedAO= T  NBF=   259
 NBsUse=   259 1.00D-06 NBFU=   259
 Harris functional with IExCor=  402 diagonalized for initial guess.
 ExpMin= 4.38D-02 ExpMax= 5.48D+03 ExpMxC= 8.25D+02 IAcc=2 IRadAn=         4 AccDes= 0.00D+00
 HarFok:  IExCor=  402 AccDes= 0.00D+00 IRadAn=         4 IDoV= 1
 ScaDFX=  1.000000  1.000000  1.000000  1.000000
 FoFCou: FMM=F IPFlag=           0 FMFlag=      100000 FMFlg1=           0
         NFxFlg=           0 DoJE=T BraDBF=F KetDBF=T FulRan=T
         Omega=  0.000000  0.000000  1.000000  0.000000  0.000000 ICntrl=     500 IOpCl=  0
         NMat0=    1 NMatS0=    1 NMatT0=    0 NMatD0=    1 NMtDS0=    0 NMtDT0=    0
         I1Cent=           4 NGrid=           0.
 Petite list used in FoFCou.
 Initial guess orbital symmetries:
       Occupied  (A) (A) (A) (A) (A) (A) (A) (A) (A) (A) (A) (A)
                 (A) (A) (A) (A) (A) (A) (A) (A) (A) (A) (A) (A)
                 (A) (A) (A) (A) (A) (A) (A) (A) (A) (A) (A) (A)
                 (A) (A) (A) (A) (A) (A) (A)
       Virtual   (A) (A) (A) (A) (A) (A) (A) (A) (A) (A) (A) (A)
                 (A) (A) (A) (A) (A) (A) (A) (A) (A) (A) (A) (A)
                 (A) (A) (A) (A) (A) (A) (A) (A) (A) (A) (A) (A)
                 (A) (A) (A) (A) (A) (A) (A) (A) (A) (A) (A) (A)
                 (A) (A) (A) (A) (A) (A) (A) (A) (A) (A) (A) (A)
                 (A) (A) (A) (A) (A) (A) (A) (A) (A) (A) (A) (A)
                 (A) (A) (A) (A) (A) (A) (A) (A) (A) (A) (A) (A)
                 (A) (A) (A) (A) (A) (A) (A) (A) (A) (A) (A) (A)
                 (A) (A) (A) (A) (A) (A) (A) (A) (A) (A) (A) (A)
                 (A) (A) (A) (A) (A) (A) (A) (A) (A) (A) (A) (A)
                 (A) (A) (A) (A) (A) (A) (A) (A) (A) (A) (A) (A)
                 (A) (A) (A) (A) (A) (A) (A) (A) (A) (A) (A) (A)
                 (A) (A) (A) (A) (A) (A) (A) (A) (A) (A) (A) (A)
                 (A) (A) (A) (A) (A) (A) (A) (A) (A) (A) (A) (A)
                 (A) (A) (A) (A) (A) (A) (A) (A) (A) (A) (A) (A)
                 (A) (A) (A) (A) (A) (A) (A) (A) (A) (A) (A) (A)
                 (A) (A) (A) (A) (A) (A) (A) (A) (A) (A) (A) (A)
                 (A) (A) (A) (A) (A) (A) (A) (A) (A) (A) (A) (A)
 The electronic state of the initial guess is 1-A.
 Requested convergence on RMS density matrix=1.00D-08 within 128 cycles.
 Requested convergence on MAX density matrix=1.00D-06.
 Requested convergence on             energy=1.00D-06.
 No special actions if energy rises.
 Error on total polarization charges =  0.05749
 SCF Done:  E(RB3LYP) =  -610.810634262     A.U. after   12 cycles
             Convg  =    0.4912D-08             -V/T =  2.0090
 SMD-CDS (non-electrostatic) energy       (kcal/mol) =       3.18
 (included in total energy above)

 **********************************************************************

            Population analysis using the SCF density.

 **********************************************************************

 Orbital symmetries:
       Occupied  (A) (A) (A) (A) (A) (A) (A) (A) (A) (A) (A) (A)
                 (A) (A) (A) (A) (A) (A) (A) (A) (A) (A) (A) (A)
                 (A) (A) (A) (A) (A) (A) (A) (A) (A) (A) (A) (A)
                 (A) (A) (A) (A) (A) (A) (A)
       Virtual   (A) (A) (A) (A) (A) (A) (A) (A) (A) (A) (A) (A)
                 (A) (A) (A) (A) (A) (A) (A) (A) (A) (A) (A) (A)
                 (A) (A) (A) (A) (A) (A) (A) (A) (A) (A) (A) (A)
                 (A) (A) (A) (A) (A) (A) (A) (A) (A) (A) (A) (A)
                 (A) (A) (A) (A) (A) (A) (A) (A) (A) (A) (A) (A)
                 (A) (A) (A) (A) (A) (A) (A) (A) (A) (A) (A) (A)
                 (A) (A) (A) (A) (A) (A) (A) (A) (A) (A) (A) (A)
                 (A) (A) (A) (A) (A) (A) (A) (A) (A) (A) (A) (A)
                 (A) (A) (A) (A) (A) (A) (A) (A) (A) (A) (A) (A)
                 (A) (A) (A) (A) (A) (A) (A) (A) (A) (A) (A) (A)
                 (A) (A) (A) (A) (A) (A) (A) (A) (A) (A) (A) (A)
                 (A) (A) (A) (A) (A) (A) (A) (A) (A) (A) (A) (A)
                 (A) (A) (A) (A) (A) (A) (A) (A) (A) (A) (A) (A)
                 (A) (A) (A) (A) (A) (A) (A) (A) (A) (A) (A) (A)
                 (A) (A) (A) (A) (A) (A) (A) (A) (A) (A) (A) (A)
                 (A) (A) (A) (A) (A) (A) (A) (A) (A) (A) (A) (A)
                 (A) (A) (A) (A) (A) (A) (A) (A) (A) (A) (A) (A)
                 (A) (A) (A) (A) (A) (A) (A) (A) (A) (A) (A) (A)
 The electronic state is 1-A.
 Alpha  occ. eigenvalues --  -19.18393 -19.17702 -19.17567 -19.17113 -19.16565
 Alpha  occ. eigenvalues --  -10.29506 -10.25166 -10.24771 -10.24661 -10.24455
 Alpha  occ. eigenvalues --  -10.24111  -1.11260  -1.05573  -1.03963  -1.02276
 Alpha  occ. eigenvalues --   -1.01092  -0.79645  -0.78368  -0.67671  -0.66063
 Alpha  occ. eigenvalues --   -0.62308  -0.58239  -0.55243  -0.54349  -0.51484
 Alpha  occ. eigenvalues --   -0.50247  -0.48636  -0.48016  -0.45607  -0.44320
 Alpha  occ. eigenvalues --   -0.43411  -0.41341  -0.40944  -0.39028  -0.36865
 Alpha  occ. eigenvalues --   -0.35955  -0.35452  -0.35098  -0.31237  -0.30567
 Alpha  occ. eigenvalues --   -0.28996  -0.27469  -0.27139
 Alpha virt. eigenvalues --    0.00446   0.01420   0.02150   0.02755   0.04091
 Alpha virt. eigenvalues --    0.05136   0.05646   0.05730   0.05867   0.07901
 Alpha virt. eigenvalues --    0.08597   0.09430   0.10190   0.10479   0.11730
 Alpha virt. eigenvalues --    0.12434   0.13060   0.13810   0.14006   0.14507
 Alpha virt. eigenvalues --    0.15180   0.15741   0.16269   0.16718   0.17072
 Alpha virt. eigenvalues --    0.17799   0.18771   0.19664   0.20254   0.20752
 Alpha virt. eigenvalues --    0.21789   0.22239   0.22770   0.23202   0.23626
 Alpha virt. eigenvalues --    0.24173   0.24796   0.25425   0.26277   0.26699
 Alpha virt. eigenvalues --    0.27884   0.28341   0.28626   0.29651   0.29882
 Alpha virt. eigenvalues --    0.30431   0.30879   0.31584   0.32199   0.33705
 Alpha virt. eigenvalues --    0.33961   0.34618   0.35463   0.35826   0.36324
 Alpha virt. eigenvalues --    0.36990   0.37317   0.38060   0.38688   0.39072
 Alpha virt. eigenvalues --    0.39677   0.42039   0.43234   0.45630   0.46773
 Alpha virt. eigenvalues --    0.47076   0.64482   0.65779   0.67106   0.67938
 Alpha virt. eigenvalues --    0.69694   0.70550   0.74290   0.75734   0.76138
 Alpha virt. eigenvalues --    0.79200   0.80422   0.82503   0.83722   0.84323
 Alpha virt. eigenvalues --    0.87435   0.89723   0.94227   0.95226   0.97429
 Alpha virt. eigenvalues --    1.01075   1.01917   1.04058   1.04731   1.07122
 Alpha virt. eigenvalues --    1.08067   1.09992   1.10418   1.12307   1.13515
 Alpha virt. eigenvalues --    1.18907   1.20142   1.21829   1.24389   1.24939
 Alpha virt. eigenvalues --    1.26069   1.29148   1.29497   1.30014   1.33409
 Alpha virt. eigenvalues --    1.34047   1.34367   1.36365   1.36912   1.39816
 Alpha virt. eigenvalues --    1.42813   1.44429   1.47085   1.48060   1.51505
 Alpha virt. eigenvalues --    1.52613   1.54748   1.55878   1.58206   1.59751
 Alpha virt. eigenvalues --    1.60366   1.62562   1.64278   1.64914   1.67760
 Alpha virt. eigenvalues --    1.69401   1.73749   1.74965   1.76417   1.78503
 Alpha virt. eigenvalues --    1.79046   1.83178   1.83953   1.85804   1.88078
 Alpha virt. eigenvalues --    1.89692   1.91975   1.93476   1.97053   2.00475
 Alpha virt. eigenvalues --    2.01820   2.02676   2.04065   2.06227   2.07223
 Alpha virt. eigenvalues --    2.07357   2.09548   2.12882   2.14270   2.18008
 Alpha virt. eigenvalues --    2.19408   2.20084   2.22635   2.24368   2.26138
 Alpha virt. eigenvalues --    2.33690   2.35703   2.37347   2.38605   2.41728
 Alpha virt. eigenvalues --    2.44576   2.47043   2.47290   2.50655   2.51079
 Alpha virt. eigenvalues --    2.55964   2.56469   2.58516   2.61974   2.63739
 Alpha virt. eigenvalues --    2.64696   2.65732   2.65873   2.68271   2.68762
 Alpha virt. eigenvalues --    2.70365   2.74646   2.78106   2.79632   2.81900
 Alpha virt. eigenvalues --    2.84193   2.85782   2.86741   2.89227   2.90049
 Alpha virt. eigenvalues --    2.92484   2.94607   2.95943   3.00090   3.01388
 Alpha virt. eigenvalues --    3.04969   3.08395   3.10581   3.12599   3.22340
 Alpha virt. eigenvalues --    3.33972   3.39424   3.40032   3.45257   3.47173
 Alpha virt. eigenvalues --    3.51242   3.52691   3.53367   3.55916   3.57999
 Alpha virt. eigenvalues --    4.29815   4.33110   4.37320   4.45774   4.49782
 Alpha virt. eigenvalues --    4.58461   4.61070   4.72331   4.80037   4.87790
 Alpha virt. eigenvalues --    4.97884
          Condensed to atoms (all electrons):
              1          2          3          4          5          6
     1  C    5.468249  -0.110485  -0.453948  -0.106972   0.255844   0.027155
     2  C   -0.110485   6.747555  -0.308944   0.271703  -0.115772  -0.654397
     3  C   -0.453948  -0.308944   6.384497  -0.108788  -0.650832   0.299561
     4  C   -0.106972   0.271703  -0.108788   6.269415  -0.016001  -0.482034
     5  C    0.255844  -0.115772  -0.650832  -0.016001   6.351647  -0.254388
     6  C    0.027155  -0.654397   0.299561  -0.482034  -0.254388   6.507024
     7  O   -0.042548   0.090691   0.315309  -0.038235  -0.090209  -0.079413
     8  O    0.162117  -0.132796   0.369907   0.038841  -0.254203  -0.009623
     9  O    0.041872  -0.178369  -0.066452  -0.078499   0.085053   0.220081
    10  O   -0.009892   0.011734   0.034639   0.198349  -0.076704  -0.090447
    11  O    0.018316  -0.016960  -0.161584  -0.164971   0.314274   0.044770
    12  H    0.462481  -0.166364   0.011475  -0.044856   0.021662   0.073932
    13  H    0.405445  -0.004518  -0.011262   0.009972  -0.002637  -0.018816
    14  H   -0.007430   0.318126   0.026683   0.012130  -0.009779   0.002387
    15  H    0.015640   0.026193   0.358345   0.028252  -0.030687  -0.024699
    16  H    0.003678  -0.029868   0.002136   0.366696  -0.077704   0.026486
    17  H    0.007018  -0.036499  -0.049395  -0.078418   0.381875   0.059341
    18  H    0.026330  -0.065773  -0.025464  -0.022537   0.040691   0.348861
    19  H   -0.004494   0.016027  -0.000446  -0.045808  -0.016911   0.036821
    20  H    0.001772   0.008158  -0.007874   0.027735   0.024290  -0.051931
    21  H   -0.002427  -0.003130   0.037824  -0.026059  -0.014373   0.011442
              7          8          9         10         11         12
     1  C   -0.042548   0.162117   0.041872  -0.009892   0.018316   0.462481
     2  C    0.090691  -0.132796  -0.178369   0.011734  -0.016960  -0.166364
     3  C    0.315309   0.369907  -0.066452   0.034639  -0.161584   0.011475
     4  C   -0.038235   0.038841  -0.078499   0.198349  -0.164971  -0.044856
     5  C   -0.090209  -0.254203   0.085053  -0.076704   0.314274   0.021662
     6  C   -0.079413  -0.009623   0.220081  -0.090447   0.044770   0.073932
     7  O    8.350763  -0.057505   0.022140  -0.002227   0.006694   0.010275
     8  O   -0.057505   8.440152   0.002749  -0.002385   0.021947  -0.043600
     9  O    0.022140   0.002749   8.398061  -0.024736  -0.001211   0.000132
    10  O   -0.002227  -0.002385  -0.024736   8.389261  -0.012688  -0.000064
    11  O    0.006694   0.021947  -0.001211  -0.012688   8.352581  -0.000037
    12  H    0.010275  -0.043600   0.000132  -0.000064  -0.000037   0.533640
    13  H   -0.000939  -0.051977  -0.000180   0.000004   0.000084  -0.039069
    14  H   -0.037639   0.006997   0.001410  -0.000761   0.000049   0.002167
    15  H   -0.043173  -0.047704   0.000528  -0.000632   0.002377  -0.000270
    16  H   -0.000343   0.005308   0.005519  -0.034891   0.003972   0.001138
    17  H    0.001024   0.009200   0.002310   0.004705  -0.039331  -0.000013
    18  H    0.007721   0.000500  -0.041367  -0.007008  -0.000592   0.000330
    19  H   -0.002252   0.000160   0.237893   0.029405   0.000037  -0.000006
    20  H    0.000058   0.000276   0.002707   0.250596  -0.000200  -0.000006
    21  H   -0.000529  -0.002043  -0.000353   0.013170   0.241071   0.000002
             13         14         15         16         17         18
     1  C    0.405445  -0.007430   0.015640   0.003678   0.007018   0.026330
     2  C   -0.004518   0.318126   0.026193  -0.029868  -0.036499  -0.065773
     3  C   -0.011262   0.026683   0.358345   0.002136  -0.049395  -0.025464
     4  C    0.009972   0.012130   0.028252   0.366696  -0.078418  -0.022537
     5  C   -0.002637  -0.009779  -0.030687  -0.077704   0.381875   0.040691
     6  C   -0.018816   0.002387  -0.024699   0.026486   0.059341   0.348861
     7  O   -0.000939  -0.037639  -0.043173  -0.000343   0.001024   0.007721
     8  O   -0.051977   0.006997  -0.047704   0.005308   0.009200   0.000500
     9  O   -0.000180   0.001410   0.000528   0.005519   0.002310  -0.041367
    10  O    0.000004  -0.000761  -0.000632  -0.034891   0.004705  -0.007008
    11  O    0.000084   0.000049   0.002377   0.003972  -0.039331  -0.000592
    12  H   -0.039069   0.002167  -0.000270   0.001138  -0.000013   0.000330
    13  H    0.549519  -0.003694   0.000342   0.000035   0.000021   0.000022
    14  H   -0.003694   0.516130  -0.000060  -0.000159  -0.000039  -0.002442
    15  H    0.000342  -0.000060   0.547273  -0.000184  -0.003145   0.000021
    16  H    0.000035  -0.000159  -0.000184   0.543990   0.004709  -0.003918
    17  H    0.000021  -0.000039  -0.003145   0.004709   0.571774  -0.000206
    18  H    0.000022  -0.002442   0.000021  -0.003918  -0.000206   0.582315
    19  H    0.000004  -0.000041  -0.000003   0.000785   0.000562  -0.002629
    20  H    0.000000   0.000001   0.000004  -0.007204   0.000100   0.002247
    21  H    0.000000   0.000000  -0.000159  -0.001392  -0.005513  -0.000008
             19         20         21
     1  C   -0.004494   0.001772  -0.002427
     2  C    0.016027   0.008158  -0.003130
     3  C   -0.000446  -0.007874   0.037824
     4  C   -0.045808   0.027735  -0.026059
     5  C   -0.016911   0.024290  -0.014373
     6  C    0.036821  -0.051931   0.011442
     7  O   -0.002252   0.000058  -0.000529
     8  O    0.000160   0.000276  -0.002043
     9  O    0.237893   0.002707  -0.000353
    10  O    0.029405   0.250596   0.013170
    11  O    0.000037  -0.000200   0.241071
    12  H   -0.000006  -0.000006   0.000002
    13  H    0.000004   0.000000   0.000000
    14  H   -0.000041   0.000001   0.000000
    15  H   -0.000003   0.000004  -0.000159
    16  H    0.000785  -0.007204  -0.001392
    17  H    0.000562   0.000100  -0.005513
    18  H   -0.002629   0.002247  -0.000008
    19  H    0.342972  -0.001798   0.000015
    20  H   -0.001798   0.325986  -0.000797
    21  H    0.000015  -0.000797   0.345406
 Mulliken atomic charges:
              1
     1  C   -0.157719
     2  C    0.333688
     3  C    0.004612
     4  C   -0.009912
     5  C    0.134863
     6  C    0.007885
     7  O   -0.409664
     8  O   -0.456318
     9  O   -0.629288
    10  O   -0.669428
    11  O   -0.608599
    12  H    0.177052
    13  H    0.167643
    14  H    0.175964
    15  H    0.171741
    16  H    0.191212
    17  H    0.169921
    18  H    0.162906
    19  H    0.409707
    20  H    0.425882
    21  H    0.407854
 Sum of Mulliken atomic charges =   0.00000
 Mulliken charges with hydrogens summed into heavy atoms:
              1
     1  C    0.186975
     2  C    0.509652
     3  C    0.176353
     4  C    0.181300
     5  C    0.304784
     6  C    0.170791
     7  O   -0.409664
     8  O   -0.456318
     9  O   -0.219581
    10  O   -0.243547
    11  O   -0.200745
 Sum of Mulliken charges with hydrogens summed into heavy atoms =   0.00000
 Electronic spatial extent (au):  <R**2>=           1434.0967
 Charge=              0.0000 electrons
 Dipole moment (field-independent basis, Debye):
    X=              2.5388    Y=             -2.4350    Z=              4.7599  Tot=              5.9187
 Quadrupole moment (field-independent basis, Debye-Ang):
   XX=            -57.3863   YY=            -74.5808   ZZ=            -62.6071
   XY=              4.9042   XZ=              3.5525   YZ=             -9.3352
 Traceless Quadrupole moment (field-independent basis, Debye-Ang):
   XX=              7.4718   YY=             -9.7227   ZZ=              2.2510
   XY=              4.9042   XZ=              3.5525   YZ=             -9.3352
 Octapole moment (field-independent basis, Debye-Ang**2):
  XXX=             25.1169  YYY=             -7.6648  ZZZ=             14.3555  XYY=              4.6787
  XXY=             -9.0826  XXZ=             16.4933  XZZ=             13.2915  YZZ=              2.8318
  YYZ=              5.4162  XYZ=              4.1651
 Hexadecapole moment (field-independent basis, Debye-Ang**3):
 XXXX=           -746.1947 YYYY=           -783.4459 ZZZZ=           -264.7144 XXXY=              9.4423
 XXXZ=             31.4932 YYYX=             32.3062 YYYZ=            -16.1213 ZZZX=              9.8954
 ZZZY=            -13.1357 XXYY=           -211.4409 XXZZ=           -153.6626 YYZZ=           -166.9323
 XXYZ=            -13.9570 YYXZ=             18.4387 ZZXY=             -6.4942
 N-N= 7.271190553545D+02 E-N=-2.884445429696D+03  KE= 6.053513099891D+02

 Test job not archived.
 1\1\GINC-COMPUTE-8-8\SP\RB3LYP\6-31+G(d,p)\C6H10O5\ASAROTTI.IQUIR\15-A
 pr-2019\0\\# B3LYP/6-31+G** test scrf=(pcm,solvent=water,smd,dovacuum)
 \\comment\\0,1\C,0,-1.897256,-0.336346,1.016091\C,0,-1.134785,-1.18269
 ,-0.014004\C,0,-0.967932,0.930115,-0.67151\C,0,1.009735,0.028838,0.554
 361\C,0,0.553367,1.043395,-0.496798\C,0,0.346192,-1.3565,0.348079\O,0,
 -1.253517,-0.353881,-1.186159\O,0,-1.648761,1.016539,0.582575\O,0,0.99
 2506,-2.0538,-0.704802\O,0,2.435376,-0.080645,0.442028\O,0,0.885878,2.
 372192,-0.123075\H,0,-1.539288,-0.465409,2.042456\H,0,-2.973208,-0.537
 828,0.981858\H,0,-1.601362,-2.14437,-0.233878\H,0,-1.359178,1.694409,-
 1.348176\H,0,0.739034,0.426142,1.53852\H,0,1.009141,0.785054,-1.463867
 \H,0,0.414783,-1.930224,1.287672\H,0,1.929777,-1.790162,-0.637554\H,0,
 2.787838,-0.380947,1.295927\H,0,1.844666,2.379221,0.035187\\Version=EM
 64L-G09RevC.01\State=1-A\HF=-610.8106343\RMSD=4.912e-09\Dipole=0.99882
 97,-0.9579986,1.8726962\Quadrupole=5.5550845,-7.2286127,1.6735282,3.64
 61557,2.6412313,-6.9405071\PG=C01 [X(C6H10O5)]\\@


 TOWERING GENIUS DISDAINS A BEATEN PATH.  IT SEEKS 
 REGIONS HITHERTO UNEXPLORED.

                                -- ABRAHAM LINCOLN
 Job cpu time:  0 days  0 hours  8 minutes 53.2 seconds.
 File lengths (MBytes):  RWF=     56 Int=      0 D2E=      0 Chk=      4 Scr=      1
 Normal termination of Gaussian 09 at Mon Apr 15 19:06:44 2019.
