 Entering Gaussian System, Link 0=g09
 Input=/home/asarotti.iquir/SCF3/08_SRR_Levo15_OPTB_energy_b3lyp_smd.gjc
 Output=/home/asarotti.iquir/SCF3/08_SRR_Levo15_OPTB_energy_b3lyp_smd.log
 Initial command:
 /share/apps/Gaussian09/EM64T.SSE4.2-enabled/g09/l1.exe /tmp/Gau-9531.inp -scrdir=/tmp/
 Entering Link 1 = /share/apps/Gaussian09/EM64T.SSE4.2-enabled/g09/l1.exe PID=      9532.
  
 Copyright (c) 1988,1990,1992,1993,1995,1998,2003,2009,2011,
            Gaussian, Inc.  All Rights Reserved.
  
 This is part of the Gaussian(R) 09 program.  It is based on
 the Gaussian(R) 03 system (copyright 2003, Gaussian, Inc.),
 the Gaussian(R) 98 system (copyright 1998, Gaussian, Inc.),
 the Gaussian(R) 94 system (copyright 1995, Gaussian, Inc.),
 the Gaussian 92(TM) system (copyright 1992, Gaussian, Inc.),
 the Gaussian 90(TM) system (copyright 1990, Gaussian, Inc.),
 the Gaussian 88(TM) system (copyright 1988, Gaussian, Inc.),
 the Gaussian 86(TM) system (copyright 1986, Carnegie Mellon
 University), and the Gaussian 82(TM) system (copyright 1983,
 Carnegie Mellon University). Gaussian is a federally registered
 trademark of Gaussian, Inc.
  
 This software contains proprietary and confidential information,
 including trade secrets, belonging to Gaussian, Inc.
  
 This software is provided under written license and may be
 used, copied, transmitted, or stored only in accord with that
 written license.
  
 The following legend is applicable only to US Government
 contracts under FAR:
  
                    RESTRICTED RIGHTS LEGEND
  
 Use, reproduction and disclosure by the US Government is
 subject to restrictions as set forth in subparagraphs (a)
 and (c) of the Commercial Computer Software - Restricted
 Rights clause in FAR 52.227-19.
  
 Gaussian, Inc.
 340 Quinnipiac St., Bldg. 40, Wallingford CT 06492
  
  
 ---------------------------------------------------------------
 Warning -- This program may not be used in any manner that
 competes with the business of Gaussian, Inc. or will provide
 assistance to any competitor of Gaussian, Inc.  The licensee
 of this program is prohibited from giving any competitor of
 Gaussian, Inc. access to this program.  By using this program,
 the user acknowledges that Gaussian, Inc. is engaged in the
 business of creating and licensing software in the field of
 computational chemistry and represents and warrants to the
 licensee that it is not a competitor of Gaussian, Inc. and that
 it will not use this program in any manner prohibited above.
 ---------------------------------------------------------------
  

 Cite this work as:
 Gaussian 09, Revision C.01,
 M. J. Frisch, G. W. Trucks, H. B. Schlegel, G. E. Scuseria, 
 M. A. Robb, J. R. Cheeseman, G. Scalmani, V. Barone, B. Mennucci, 
 G. A. Petersson, H. Nakatsuji, M. Caricato, X. Li, H. P. Hratchian, 
 A. F. Izmaylov, J. Bloino, G. Zheng, J. L. Sonnenberg, M. Hada, 
 M. Ehara, K. Toyota, R. Fukuda, J. Hasegawa, M. Ishida, T. Nakajima, 
 Y. Honda, O. Kitao, H. Nakai, T. Vreven, J. A. Montgomery, Jr., 
 J. E. Peralta, F. Ogliaro, M. Bearpark, J. J. Heyd, E. Brothers, 
 K. N. Kudin, V. N. Staroverov, T. Keith, R. Kobayashi, J. Normand, 
 K. Raghavachari, A. Rendell, J. C. Burant, S. S. Iyengar, J. Tomasi, 
 M. Cossi, N. Rega, J. M. Millam, M. Klene, J. E. Knox, J. B. Cross, 
 V. Bakken, C. Adamo, J. Jaramillo, R. Gomperts, R. E. Stratmann, 
 O. Yazyev, A. J. Austin, R. Cammi, C. Pomelli, J. W. Ochterski, 
 R. L. Martin, K. Morokuma, V. G. Zakrzewski, G. A. Voth, 
 P. Salvador, J. J. Dannenberg, S. Dapprich, A. D. Daniels, 
 O. Farkas, J. B. Foresman, J. V. Ortiz, J. Cioslowski, 
 and D. J. Fox, Gaussian, Inc., Wallingford CT, 2010.
 
 ******************************************
 Gaussian 09:  EM64L-G09RevC.01 23-Sep-2011
                15-Apr-2019 
 ******************************************
 %nprocshared=4
 Will use up to    4 processors via shared memory.
 -----------------------------------------------------------
 # B3LYP/6-31+G** test scrf=(pcm,solvent=water,smd,dovacuum)
 -----------------------------------------------------------
 1/38=1/1;
 2/12=2,17=6,18=5,40=1/2;
 3/5=1,6=6,7=111,11=2,16=1,25=1,30=1,70=32101,72=1,74=-5/1,2,3;
 4//1;
 5/5=2,38=5,53=1/2;
 6/7=2,8=2,9=2,10=2,28=1/1;
 99/5=1,9=1/99;
 -------
 comment
 -------
 Charge =  0 Multiplicity = 1
 Symbolic Z-Matrix:
 6                     1.38135  -1.59885  -0.44471 
 6                     0.00061  -1.41588   0.19199 
 6                     1.22159   0.31896   0.83856 
 6                    -0.99592   0.88681  -0.28208 
 6                     0.39736   1.4273    0.12266 
 6                    -0.98758  -0.60892  -0.69592 
 8                     0.36521  -0.66107   1.37143 
 8                     2.03829  -0.34948  -0.14243 
 8                    -2.30477  -1.1296   -0.63603 
 8                    -1.90589   0.98656   0.82755 
 8                     1.11356   1.94404  -0.98751 
 1                     1.35977  -1.74152  -1.52779 
 1                     1.93337  -2.42047   0.02361 
 1                    -0.46213  -2.34822   0.5178 
 1                     1.86455   0.70765   1.63068 
 1                    -1.3621    1.48696  -1.12144 
 1                     0.22448   2.25268   0.82172 
 1                    -0.66766  -0.68609  -1.74083 
 1                    -2.71599  -0.64469   0.10705 
 1                    -2.419     1.8022    0.72297 
 1                     1.68907   1.21144  -1.28091 
 
                          Input orientation:                          
 ---------------------------------------------------------------------
 Center     Atomic      Atomic             Coordinates (Angstroms)
 Number     Number       Type             X           Y           Z
 ---------------------------------------------------------------------
      1          6           0        1.381351   -1.598849   -0.444707
      2          6           0        0.000608   -1.415884    0.191992
      3          6           0        1.221586    0.318964    0.838562
      4          6           0       -0.995919    0.886807   -0.282076
      5          6           0        0.397363    1.427299    0.122656
      6          6           0       -0.987576   -0.608915   -0.695918
      7          8           0        0.365205   -0.661069    1.371433
      8          8           0        2.038290   -0.349484   -0.142431
      9          8           0       -2.304773   -1.129601   -0.636033
     10          8           0       -1.905886    0.986555    0.827549
     11          8           0        1.113558    1.944040   -0.987509
     12          1           0        1.359772   -1.741521   -1.527794
     13          1           0        1.933367   -2.420468    0.023612
     14          1           0       -0.462126   -2.348216    0.517796
     15          1           0        1.864554    0.707650    1.630683
     16          1           0       -1.362100    1.486960   -1.121436
     17          1           0        0.224480    2.252676    0.821724
     18          1           0       -0.667664   -0.686088   -1.740828
     19          1           0       -2.715990   -0.644690    0.107047
     20          1           0       -2.419003    1.802201    0.722968
     21          1           0        1.689073    1.211440   -1.280906
 ---------------------------------------------------------------------
                    Distance matrix (angstroms):
                    1          2          3          4          5
     1  C    0.000000
     2  C    1.531441   0.000000
     3  C    2.313074   2.217778   0.000000
     4  C    3.443305   2.553467   2.548647   0.000000
     5  C    3.232291   2.871570   1.555722   1.548281   0.000000
     6  C    2.579708   1.554378   2.845344   1.551940   2.595050
     7  O    2.282619   1.446982   1.406344   2.642474   2.433466
     8  O    1.443556   2.324047   1.440894   3.279381   2.433078
     9  O    3.720794   2.466245   4.087539   2.429874   3.796694
    10  O    4.371370   3.132150   3.197949   1.438491   2.448691
    11  O    3.594219   3.730814   2.446850   2.462777   1.418599
    12  H    1.092657   2.216084   3.140754   3.742887   3.700221
    13  H    1.095035   2.184742   2.945380   4.428570   4.144204
    14  H    2.210514   1.090648   3.170430   3.374923   3.892219
    15  H    3.140170   3.170729   1.091760   3.445729   2.223666
    16  H    4.184101   3.465338   3.446917   1.094896   2.155698
    17  H    4.216212   3.728943   2.175717   2.138538   1.095368
    18  H    2.590661   2.171401   3.351514   2.170186   3.012185
    19  H    4.243001   2.825219   4.119253   2.335711   3.739833
    20  H    5.231950   4.061099   3.932841   1.968052   2.903936
    21  H    2.948160   3.452995   2.346743   2.883094   1.919660
                    6          7          8          9         10
     6  C    0.000000
     7  O    2.471169   0.000000
     8  O    3.086992   2.277736   0.000000
     9  O    1.417642   3.373162   4.440093   0.000000
    10  O    2.389512   2.858029   4.275791   2.603709   0.000000
    11  O    3.319242   3.593220   2.613339   4.610400   3.650788
    12  H    2.735847   3.249932   2.077832   3.820808   4.863596
    13  H    3.511603   2.715002   2.080277   4.479207   5.195574
    14  H    2.185033   2.063889   3.268472   2.492327   3.647066
    15  H    3.909100   2.046619   2.071630   5.088888   3.865104
    16  H    2.171181   3.716451   3.986682   2.823232   2.084383
    17  H    3.458471   2.968483   3.315228   4.467882   2.478216
    18  H    1.095507   3.279270   3.160753   2.024204   3.305675
    19  H    1.906160   3.330571   4.769965   0.977960   1.958661
    20  H    3.142563   3.773595   5.024552   3.233480   0.969280
    21  H    3.289431   3.506254   1.963304   4.674092   4.173714
                   11         12         13         14         15
    11  O    0.000000
    12  H    3.733080   0.000000
    13  H    4.554490   1.787971   0.000000
    14  H    4.813750   2.805678   2.447003   0.000000
    15  H    2.991251   4.028551   3.517461   3.998784   0.000000
    16  H    2.521060   4.242264   5.238247   4.266803   4.311934
    17  H    2.039372   4.771031   5.039400   4.661760   2.394026
    18  H    3.264631   2.295609   3.589803   2.811814   4.440914
    19  H    4.750265   4.526321   4.977637   2.854929   5.013150
    20  H    3.927447   5.648277   6.104356   4.593193   4.513408
    21  H    0.976730   2.981505   3.866808   4.531461   2.960059
                   16         17         18         19         20
    16  H    0.000000
    17  H    2.622866   0.000000
    18  H    2.363900   3.999866   0.000000
    19  H    2.808224   4.189494   2.758984   0.000000
    20  H    2.149011   2.683409   3.915234   2.540637   0.000000
    21  H    3.067735   2.765910   3.060449   4.977571   4.608774
                   21
    21  H    0.000000
 Stoichiometry    C6H10O5
 Framework group  C1[X(C6H10O5)]
 Deg. of freedom    57
 Full point group                 C1      NOp   1
 Largest Abelian subgroup         C1      NOp   1
 Largest concise Abelian subgroup C1      NOp   1
                         Standard orientation:                         
 ---------------------------------------------------------------------
 Center     Atomic      Atomic             Coordinates (Angstroms)
 Number     Number       Type             X           Y           Z
 ---------------------------------------------------------------------
      1          6           0        1.381351   -1.598849   -0.444707
      2          6           0        0.000608   -1.415884    0.191992
      3          6           0        1.221586    0.318964    0.838562
      4          6           0       -0.995919    0.886807   -0.282076
      5          6           0        0.397363    1.427299    0.122656
      6          6           0       -0.987576   -0.608915   -0.695918
      7          8           0        0.365205   -0.661069    1.371433
      8          8           0        2.038290   -0.349484   -0.142431
      9          8           0       -2.304773   -1.129602   -0.636033
     10          8           0       -1.905886    0.986555    0.827549
     11          8           0        1.113558    1.944040   -0.987509
     12          1           0        1.359772   -1.741521   -1.527794
     13          1           0        1.933368   -2.420468    0.023612
     14          1           0       -0.462125   -2.348216    0.517796
     15          1           0        1.864554    0.707650    1.630683
     16          1           0       -1.362100    1.486960   -1.121436
     17          1           0        0.224480    2.252676    0.821724
     18          1           0       -0.667664   -0.686088   -1.740828
     19          1           0       -2.715990   -0.644691    0.107047
     20          1           0       -2.419003    1.802200    0.722968
     21          1           0        1.689073    1.211440   -1.280906
 ---------------------------------------------------------------------
 Rotational constants (GHZ):      1.5725150      1.2029494      0.9130948
 Standard basis: 6-31+G(d,p) (6D, 7F)
 There are   259 symmetry adapted basis functions of A   symmetry.
 Integral buffers will be    131072 words long.
 Raffenetti 2 integral format.
 Two-electron integral symmetry is turned on.
   259 basis functions,   422 primitive gaussians,   259 cartesian basis functions
    43 alpha electrons       43 beta electrons
       nuclear repulsion energy       728.0659972616 Hartrees.
 NAtoms=   21 NActive=   21 NUniq=   21 SFac= 1.00D+00 NAtFMM=   60 NAOKFM=F Big=F
 ------------------------------------------------------------------------------
 Polarizable Continuum Model (PCM)
 =================================
 Model                : C-PCM.
 Atomic radii         : SMD-Coulomb.
 Polarization charges : Total charges.
 Charge compensation  : None.
 Solution method      : Matrix inversion.
 Cavity type          : VdW (van der Waals Surface) (Alpha=1.000).
 Cavity algorithm     : GePol (No added spheres)
                        Default sphere list used, NSphG=   21.
                        Lebedev-Laikov grids with approx.  5.0 points / Ang**2.
                        Smoothing algorithm: Karplus/York (Gamma=1.0000).
                        Polarization charges: spherical gaussians, with
                                              point-specific exponents (IZeta= 3).
                        Self-potential: point-specific (ISelfS= 7).
                        Self-field    : sphere-specific E.n sum rule (ISelfD= 2).
 Solvent              : Water, Eps=  78.355300 Eps(inf)=   1.777849
 ------------------------------------------------------------------------------
 ------------------------------------------------------------------------------
 Atomic radii for non-electrostatic terms: SMD-CDS.
 ------------------------------------------------------------------------------
 Nuclear repulsion after PCM non-electrostatic terms =      728.0710012555 Hartrees.
 One-electron integrals computed using PRISM.
 NBasis=   259 RedAO= T  NBF=   259
 NBsUse=   259 1.00D-06 NBFU=   259
 Harris functional with IExCor=  402 diagonalized for initial guess.
 ExpMin= 4.38D-02 ExpMax= 5.48D+03 ExpMxC= 8.25D+02 IAcc=2 IRadAn=         4 AccDes= 0.00D+00
 HarFok:  IExCor=  402 AccDes= 0.00D+00 IRadAn=         4 IDoV= 1
 ScaDFX=  1.000000  1.000000  1.000000  1.000000
 FoFCou: FMM=F IPFlag=           0 FMFlag=      100000 FMFlg1=           0
         NFxFlg=           0 DoJE=T BraDBF=F KetDBF=T FulRan=T
         Omega=  0.000000  0.000000  1.000000  0.000000  0.000000 ICntrl=     500 IOpCl=  0
         NMat0=    1 NMatS0=    1 NMatT0=    0 NMatD0=    1 NMtDS0=    0 NMtDT0=    0
         I1Cent=           4 NGrid=           0.
 Petite list used in FoFCou.
 Initial guess orbital symmetries:
       Occupied  (A) (A) (A) (A) (A) (A) (A) (A) (A) (A) (A) (A)
                 (A) (A) (A) (A) (A) (A) (A) (A) (A) (A) (A) (A)
                 (A) (A) (A) (A) (A) (A) (A) (A) (A) (A) (A) (A)
                 (A) (A) (A) (A) (A) (A) (A)
       Virtual   (A) (A) (A) (A) (A) (A) (A) (A) (A) (A) (A) (A)
                 (A) (A) (A) (A) (A) (A) (A) (A) (A) (A) (A) (A)
                 (A) (A) (A) (A) (A) (A) (A) (A) (A) (A) (A) (A)
                 (A) (A) (A) (A) (A) (A) (A) (A) (A) (A) (A) (A)
                 (A) (A) (A) (A) (A) (A) (A) (A) (A) (A) (A) (A)
                 (A) (A) (A) (A) (A) (A) (A) (A) (A) (A) (A) (A)
                 (A) (A) (A) (A) (A) (A) (A) (A) (A) (A) (A) (A)
                 (A) (A) (A) (A) (A) (A) (A) (A) (A) (A) (A) (A)
                 (A) (A) (A) (A) (A) (A) (A) (A) (A) (A) (A) (A)
                 (A) (A) (A) (A) (A) (A) (A) (A) (A) (A) (A) (A)
                 (A) (A) (A) (A) (A) (A) (A) (A) (A) (A) (A) (A)
                 (A) (A) (A) (A) (A) (A) (A) (A) (A) (A) (A) (A)
                 (A) (A) (A) (A) (A) (A) (A) (A) (A) (A) (A) (A)
                 (A) (A) (A) (A) (A) (A) (A) (A) (A) (A) (A) (A)
                 (A) (A) (A) (A) (A) (A) (A) (A) (A) (A) (A) (A)
                 (A) (A) (A) (A) (A) (A) (A) (A) (A) (A) (A) (A)
                 (A) (A) (A) (A) (A) (A) (A) (A) (A) (A) (A) (A)
                 (A) (A) (A) (A) (A) (A) (A) (A) (A) (A) (A) (A)
 The electronic state of the initial guess is 1-A.
 Requested convergence on RMS density matrix=1.00D-08 within 128 cycles.
 Requested convergence on MAX density matrix=1.00D-06.
 Requested convergence on             energy=1.00D-06.
 No special actions if energy rises.
 Error on total polarization charges =  0.05769
 SCF Done:  E(RB3LYP) =  -610.802318221     A.U. after   12 cycles
             Convg  =    0.4559D-08             -V/T =  2.0090
 SMD-CDS (non-electrostatic) energy       (kcal/mol) =       3.14
 (included in total energy above)

 **********************************************************************

            Population analysis using the SCF density.

 **********************************************************************

 Orbital symmetries:
       Occupied  (A) (A) (A) (A) (A) (A) (A) (A) (A) (A) (A) (A)
                 (A) (A) (A) (A) (A) (A) (A) (A) (A) (A) (A) (A)
                 (A) (A) (A) (A) (A) (A) (A) (A) (A) (A) (A) (A)
                 (A) (A) (A) (A) (A) (A) (A)
       Virtual   (A) (A) (A) (A) (A) (A) (A) (A) (A) (A) (A) (A)
                 (A) (A) (A) (A) (A) (A) (A) (A) (A) (A) (A) (A)
                 (A) (A) (A) (A) (A) (A) (A) (A) (A) (A) (A) (A)
                 (A) (A) (A) (A) (A) (A) (A) (A) (A) (A) (A) (A)
                 (A) (A) (A) (A) (A) (A) (A) (A) (A) (A) (A) (A)
                 (A) (A) (A) (A) (A) (A) (A) (A) (A) (A) (A) (A)
                 (A) (A) (A) (A) (A) (A) (A) (A) (A) (A) (A) (A)
                 (A) (A) (A) (A) (A) (A) (A) (A) (A) (A) (A) (A)
                 (A) (A) (A) (A) (A) (A) (A) (A) (A) (A) (A) (A)
                 (A) (A) (A) (A) (A) (A) (A) (A) (A) (A) (A) (A)
                 (A) (A) (A) (A) (A) (A) (A) (A) (A) (A) (A) (A)
                 (A) (A) (A) (A) (A) (A) (A) (A) (A) (A) (A) (A)
                 (A) (A) (A) (A) (A) (A) (A) (A) (A) (A) (A) (A)
                 (A) (A) (A) (A) (A) (A) (A) (A) (A) (A) (A) (A)
                 (A) (A) (A) (A) (A) (A) (A) (A) (A) (A) (A) (A)
                 (A) (A) (A) (A) (A) (A) (A) (A) (A) (A) (A) (A)
                 (A) (A) (A) (A) (A) (A) (A) (A) (A) (A) (A) (A)
                 (A) (A) (A) (A) (A) (A) (A) (A) (A) (A) (A) (A)
 The electronic state is 1-A.
 Alpha  occ. eigenvalues --  -19.18493 -19.18075 -19.17344 -19.16701 -19.16387
 Alpha  occ. eigenvalues --  -10.29614 -10.24817 -10.24740 -10.24551 -10.24491
 Alpha  occ. eigenvalues --  -10.23998  -1.11378  -1.05301  -1.03878  -1.02077
 Alpha  occ. eigenvalues --   -1.01082  -0.79112  -0.77407  -0.67759  -0.65935
 Alpha  occ. eigenvalues --   -0.62306  -0.58270  -0.55597  -0.54442  -0.51561
 Alpha  occ. eigenvalues --   -0.50301  -0.49024  -0.46123  -0.45404  -0.44638
 Alpha  occ. eigenvalues --   -0.42685  -0.41024  -0.40153  -0.38949  -0.37021
 Alpha  occ. eigenvalues --   -0.35875  -0.35006  -0.34372  -0.32257  -0.31877
 Alpha  occ. eigenvalues --   -0.29232  -0.27281  -0.26208
 Alpha virt. eigenvalues --    0.00658   0.01186   0.02506   0.02809   0.04503
 Alpha virt. eigenvalues --    0.04627   0.04736   0.05144   0.05996   0.08322
 Alpha virt. eigenvalues --    0.08943   0.09610   0.10187   0.10898   0.11325
 Alpha virt. eigenvalues --    0.12325   0.12471   0.13501   0.13920   0.14411
 Alpha virt. eigenvalues --    0.15226   0.15867   0.16489   0.16806   0.17814
 Alpha virt. eigenvalues --    0.18232   0.18751   0.19160   0.20023   0.21007
 Alpha virt. eigenvalues --    0.21767   0.22026   0.22531   0.23069   0.23793
 Alpha virt. eigenvalues --    0.23892   0.24627   0.25643   0.25840   0.26962
 Alpha virt. eigenvalues --    0.27882   0.28480   0.28874   0.29713   0.30115
 Alpha virt. eigenvalues --    0.30388   0.31361   0.31776   0.32588   0.33310
 Alpha virt. eigenvalues --    0.33719   0.35114   0.35638   0.35949   0.36750
 Alpha virt. eigenvalues --    0.36886   0.38565   0.38951   0.39198   0.39458
 Alpha virt. eigenvalues --    0.40574   0.41027   0.43221   0.45235   0.48147
 Alpha virt. eigenvalues --    0.48805   0.62915   0.66818   0.67393   0.69981
 Alpha virt. eigenvalues --    0.71663   0.73103   0.74037   0.76245   0.78229
 Alpha virt. eigenvalues --    0.79131   0.80412   0.81886   0.83340   0.85255
 Alpha virt. eigenvalues --    0.86757   0.90598   0.91051   0.94009   0.97265
 Alpha virt. eigenvalues --    0.99774   1.01278   1.03962   1.04772   1.05942
 Alpha virt. eigenvalues --    1.06366   1.08615   1.10218   1.10799   1.12933
 Alpha virt. eigenvalues --    1.19010   1.21254   1.22737   1.24987   1.26535
 Alpha virt. eigenvalues --    1.27931   1.28600   1.29023   1.31392   1.32557
 Alpha virt. eigenvalues --    1.33503   1.35215   1.36663   1.38529   1.39673
 Alpha virt. eigenvalues --    1.41394   1.43568   1.45389   1.49259   1.51768
 Alpha virt. eigenvalues --    1.53156   1.54979   1.55731   1.56409   1.59710
 Alpha virt. eigenvalues --    1.61285   1.62214   1.64720   1.66749   1.68374
 Alpha virt. eigenvalues --    1.69658   1.70379   1.74131   1.75400   1.77397
 Alpha virt. eigenvalues --    1.80395   1.81642   1.83494   1.85299   1.87860
 Alpha virt. eigenvalues --    1.89830   1.90830   1.94239   1.96085   1.97102
 Alpha virt. eigenvalues --    1.98759   1.99703   2.01995   2.05514   2.07230
 Alpha virt. eigenvalues --    2.08886   2.11364   2.13364   2.14273   2.16780
 Alpha virt. eigenvalues --    2.17658   2.24012   2.24672   2.28153   2.32191
 Alpha virt. eigenvalues --    2.33398   2.35004   2.38582   2.41782   2.44282
 Alpha virt. eigenvalues --    2.44433   2.46175   2.50990   2.52404   2.53860
 Alpha virt. eigenvalues --    2.56459   2.58180   2.60197   2.61842   2.62920
 Alpha virt. eigenvalues --    2.64237   2.65457   2.68101   2.69760   2.70109
 Alpha virt. eigenvalues --    2.70802   2.72201   2.75534   2.76435   2.78077
 Alpha virt. eigenvalues --    2.82204   2.85235   2.86399   2.87291   2.89518
 Alpha virt. eigenvalues --    2.92581   2.95640   2.97169   2.99777   3.02654
 Alpha virt. eigenvalues --    3.05110   3.07938   3.11401   3.13045   3.20747
 Alpha virt. eigenvalues --    3.32709   3.41324   3.43781   3.44205   3.48549
 Alpha virt. eigenvalues --    3.50897   3.51422   3.54849   3.57523   3.58347
 Alpha virt. eigenvalues --    4.25071   4.26557   4.38849   4.45144   4.50262
 Alpha virt. eigenvalues --    4.55997   4.62595   4.79717   4.89034   4.93125
 Alpha virt. eigenvalues --    5.02137
          Condensed to atoms (all electrons):
              1          2          3          4          5          6
     1  C    5.492611   0.091982  -0.343429   0.135204   0.032059  -0.282431
     2  C    0.091982   6.690796  -0.555210  -0.007086   0.292258  -0.800709
     3  C   -0.343429  -0.555210   6.045776  -0.279081  -0.018568   0.364969
     4  C    0.135204  -0.007086  -0.279081   6.544711  -0.554708  -0.289503
     5  C    0.032059   0.292258  -0.018568  -0.554708   6.403730  -0.407664
     6  C   -0.282431  -0.800709   0.364969  -0.289503  -0.407664   7.002887
     7  O   -0.031032   0.093948   0.236015   0.127736  -0.188639  -0.142792
     8  O    0.153125  -0.168659   0.259954   0.015551  -0.231833   0.097579
     9  O    0.007925  -0.091931  -0.019993  -0.076390   0.016262   0.265533
    10  O    0.013528   0.049669   0.002268   0.132976  -0.013330  -0.206348
    11  O    0.015564  -0.010450  -0.108358  -0.090254   0.247417   0.004644
    12  H    0.453383  -0.114769   0.024697   0.000334   0.003340   0.001379
    13  H    0.413117  -0.021431  -0.026400   0.000183   0.001629   0.004882
    14  H   -0.002378   0.328591   0.016144   0.032544  -0.008260  -0.031037
    15  H    0.018569   0.008834   0.345665   0.025414  -0.039396   0.001498
    16  H   -0.002547   0.023696   0.015353   0.380126  -0.013861  -0.074804
    17  H   -0.000468  -0.026388  -0.011061  -0.064600   0.391709   0.048735
    18  H    0.040260  -0.142775  -0.010785  -0.072260   0.022199   0.484925
    19  H    0.003383  -0.015221  -0.004768  -0.071547   0.022913   0.035505
    20  H   -0.000811  -0.009445   0.002021   0.042791  -0.049686   0.030049
    21  H    0.006319  -0.004500  -0.036649  -0.016097   0.010757   0.010687
              7          8          9         10         11         12
     1  C   -0.031032   0.153125   0.007925   0.013528   0.015564   0.453383
     2  C    0.093948  -0.168659  -0.091931   0.049669  -0.010450  -0.114769
     3  C    0.236015   0.259954  -0.019993   0.002268  -0.108358   0.024697
     4  C    0.127736   0.015551  -0.076390   0.132976  -0.090254   0.000334
     5  C   -0.188639  -0.231833   0.016262  -0.013330   0.247417   0.003340
     6  C   -0.142792   0.097579   0.265533  -0.206348   0.004644   0.001379
     7  O    8.440742  -0.075754   0.010421  -0.002203   0.012380   0.010228
     8  O   -0.075754   8.547339  -0.001578   0.000686  -0.009237  -0.051899
     9  O    0.010421  -0.001578   8.336110  -0.012589  -0.001224   0.000824
    10  O   -0.002203   0.000686  -0.012589   8.460453   0.004618  -0.000036
    11  O    0.012380  -0.009237  -0.001224   0.004618   8.314615   0.001402
    12  H    0.010228  -0.051899   0.000824  -0.000036   0.001402   0.532795
    13  H   -0.000996  -0.043330  -0.000344   0.000072  -0.000525  -0.038283
    14  H   -0.032556   0.010371  -0.002836  -0.001587   0.000113   0.001894
    15  H   -0.047981  -0.032948   0.000045  -0.001368   0.003876  -0.000269
    16  H   -0.000172  -0.002390   0.007856  -0.033583  -0.003224   0.000004
    17  H   -0.000876   0.006217  -0.000958  -0.001667  -0.056924   0.000000
    18  H    0.008413  -0.002205  -0.060884   0.007114  -0.000187   0.001860
    19  H   -0.000131  -0.000217   0.247897   0.032905  -0.000036  -0.000008
    20  H    0.001678   0.000117  -0.002353   0.242456   0.000061   0.000000
    21  H    0.000953   0.031511  -0.000116  -0.000171   0.251139  -0.000357
             13         14         15         16         17         18
     1  C    0.413117  -0.002378   0.018569  -0.002547  -0.000468   0.040260
     2  C   -0.021431   0.328591   0.008834   0.023696  -0.026388  -0.142775
     3  C   -0.026400   0.016144   0.345665   0.015353  -0.011061  -0.010785
     4  C    0.000183   0.032544   0.025414   0.380126  -0.064600  -0.072260
     5  C    0.001629  -0.008260  -0.039396  -0.013861   0.391709   0.022199
     6  C    0.004882  -0.031037   0.001498  -0.074804   0.048735   0.484925
     7  O   -0.000996  -0.032556  -0.047981  -0.000172  -0.000876   0.008413
     8  O   -0.043330   0.010371  -0.032948  -0.002390   0.006217  -0.002205
     9  O   -0.000344  -0.002836   0.000045   0.007856  -0.000958  -0.060884
    10  O    0.000072  -0.001587  -0.001368  -0.033583  -0.001667   0.007114
    11  O   -0.000525   0.000113   0.003876  -0.003224  -0.056924  -0.000187
    12  H   -0.038283   0.001894  -0.000269   0.000004   0.000000   0.001860
    13  H    0.546666  -0.003502   0.000498   0.000001   0.000007   0.000198
    14  H   -0.003502   0.511976  -0.000024  -0.000119   0.000010   0.002053
    15  H    0.000498  -0.000024   0.547543  -0.000135  -0.005225   0.000040
    16  H    0.000001  -0.000119  -0.000135   0.548207  -0.002246  -0.006418
    17  H    0.000007   0.000010  -0.005225  -0.002246   0.547056  -0.000124
    18  H    0.000198   0.002053   0.000040  -0.006418  -0.000124   0.544567
    19  H    0.000005  -0.000170   0.000001  -0.000487  -0.000033   0.006382
    20  H    0.000000   0.000011   0.000016  -0.010035   0.001181  -0.000145
    21  H    0.000130  -0.000011   0.000221  -0.000176   0.005672   0.000094
             19         20         21
     1  C    0.003383  -0.000811   0.006319
     2  C   -0.015221  -0.009445  -0.004500
     3  C   -0.004768   0.002021  -0.036649
     4  C   -0.071547   0.042791  -0.016097
     5  C    0.022913  -0.049686   0.010757
     6  C    0.035505   0.030049   0.010687
     7  O   -0.000131   0.001678   0.000953
     8  O   -0.000217   0.000117   0.031511
     9  O    0.247897  -0.002353  -0.000116
    10  O    0.032905   0.242456  -0.000171
    11  O   -0.000036   0.000061   0.251139
    12  H   -0.000008   0.000000  -0.000357
    13  H    0.000005   0.000000   0.000130
    14  H   -0.000170   0.000011  -0.000011
    15  H    0.000001   0.000016   0.000221
    16  H   -0.000487  -0.010035  -0.000176
    17  H   -0.000033   0.001181   0.005672
    18  H    0.006382  -0.000145   0.000094
    19  H    0.338506  -0.001779   0.000003
    20  H   -0.001779   0.321887  -0.000004
    21  H    0.000003  -0.000004   0.328125
 Mulliken atomic charges:
              1
     1  C   -0.213934
     2  C    0.388801
     3  C    0.101441
     4  C    0.083959
     5  C    0.081672
     6  C   -0.117984
     7  O   -0.419381
     8  O   -0.502403
     9  O   -0.621678
    10  O   -0.673861
    11  O   -0.575409
    12  H    0.173484
    13  H    0.167422
    14  H    0.178771
    15  H    0.175126
    16  H    0.174954
    17  H    0.169983
    18  H    0.177677
    19  H    0.406899
    20  H    0.431991
    21  H    0.412472
 Sum of Mulliken atomic charges =   0.00000
 Mulliken charges with hydrogens summed into heavy atoms:
              1
     1  C    0.126972
     2  C    0.567572
     3  C    0.276567
     4  C    0.258913
     5  C    0.251655
     6  C    0.059693
     7  O   -0.419381
     8  O   -0.502403
     9  O   -0.214779
    10  O   -0.241871
    11  O   -0.162937
 Sum of Mulliken charges with hydrogens summed into heavy atoms =   0.00000
 Electronic spatial extent (au):  <R**2>=           1424.5020
 Charge=              0.0000 electrons
 Dipole moment (field-independent basis, Debye):
    X=             -0.2410    Y=              0.3107    Z=             -0.6835  Tot=              0.7885
 Quadrupole moment (field-independent basis, Debye-Ang):
   XX=            -67.7957   YY=            -62.7893   ZZ=            -68.2439
   XY=            -12.3187   XZ=             -1.5560   YZ=              5.2138
 Traceless Quadrupole moment (field-independent basis, Debye-Ang):
   XX=             -1.5194   YY=              3.4870   ZZ=             -1.9676
   XY=            -12.3187   XZ=             -1.5560   YZ=              5.2138
 Octapole moment (field-independent basis, Debye-Ang**2):
  XXX=            -17.4722  YYY=             -9.8962  ZZZ=             -9.3230  XYY=            -10.1540
  XXY=             23.1265  XXZ=             13.6436  XZZ=              9.5158  YZZ=              1.0915
  YYZ=             15.0989  XYZ=             11.6492
 Hexadecapole moment (field-independent basis, Debye-Ang**3):
 XXXX=           -829.6692 YYYY=           -634.7363 ZZZZ=           -302.5006 XXXY=            -61.4918
 XXXZ=            -41.2057 YYYX=            -77.7373 YYYZ=             27.8297 ZZZX=             -5.2338
 ZZZY=             12.4840 XXYY=           -231.5870 XXZZ=           -187.0838 YYZZ=           -163.6052
 XXYZ=             -6.0229 YYXZ=             -7.4684 ZZXY=             -3.3696
 N-N= 7.280710012555D+02 E-N=-2.886030733307D+03  KE= 6.053415937721D+02

 Test job not archived.
 1\1\GINC-COMPUTE-10-0\SP\RB3LYP\6-31+G(d,p)\C6H10O5\ASAROTTI.IQUIR\15-
 Apr-2019\0\\# B3LYP/6-31+G** test scrf=(pcm,solvent=water,smd,dovacuum
 )\\comment\\0,1\C,0,1.381351,-1.598849,-0.444707\C,0,0.000608,-1.41588
 4,0.191992\C,0,1.221586,0.318964,0.838562\C,0,-0.995919,0.886807,-0.28
 2076\C,0,0.397363,1.427299,0.122656\C,0,-0.987576,-0.608915,-0.695918\
 O,0,0.365205,-0.661069,1.371433\O,0,2.03829,-0.349484,-0.142431\O,0,-2
 .304773,-1.129601,-0.636033\O,0,-1.905886,0.986555,0.827549\O,0,1.1135
 58,1.94404,-0.987509\H,0,1.359772,-1.741521,-1.527794\H,0,1.933367,-2.
 420468,0.023612\H,0,-0.462126,-2.348216,0.517796\H,0,1.864554,0.70765,
 1.630683\H,0,-1.3621,1.48696,-1.121436\H,0,0.22448,2.252676,0.821724\H
 ,0,-0.667664,-0.686088,-1.740828\H,0,-2.71599,-0.64469,0.107047\H,0,-2
 .419003,1.802201,0.722968\H,0,1.689073,1.21144,-1.280906\\Version=EM64
 L-G09RevC.01\State=1-A\HF=-610.8023182\RMSD=4.559e-09\Dipole=-0.094808
 2,0.1222529,-0.2688965\Quadrupole=-1.1296409,2.592491,-1.4628501,-9.15
 86165,-1.1568189,3.8763591\PG=C01 [X(C6H10O5)]\\@


 I HAVE NOT FAILED, I HAVE ONLY DISCOVERED 10,000
 WAYS THAT DIDN'T WORK.  -- THOMAS A. EDISON
 Job cpu time:  0 days  0 hours 12 minutes 44.3 seconds.
 File lengths (MBytes):  RWF=     56 Int=      0 D2E=      0 Chk=      4 Scr=      1
 Normal termination of Gaussian 09 at Mon Apr 15 19:02:17 2019.
