 Entering Gaussian System, Link 0=g09
 Input=/home/mmarcarino.iquir/NMR/08_SRR_Levo02_OPTB_nmr.gjc
 Output=/home/mmarcarino.iquir/NMR/08_SRR_Levo02_OPTB_nmr.log
 Initial command:
 /share/apps/Gaussian09/EM64T.SSE4.2-enabled/g09/l1.exe /tmp/Gau-12574.inp -scrdir=/tmp/
 Entering Link 1 = /share/apps/Gaussian09/EM64T.SSE4.2-enabled/g09/l1.exe PID=     12575.
  
 Copyright (c) 1988,1990,1992,1993,1995,1998,2003,2009,2011,
            Gaussian, Inc.  All Rights Reserved.
  
 This is part of the Gaussian(R) 09 program.  It is based on
 the Gaussian(R) 03 system (copyright 2003, Gaussian, Inc.),
 the Gaussian(R) 98 system (copyright 1998, Gaussian, Inc.),
 the Gaussian(R) 94 system (copyright 1995, Gaussian, Inc.),
 the Gaussian 92(TM) system (copyright 1992, Gaussian, Inc.),
 the Gaussian 90(TM) system (copyright 1990, Gaussian, Inc.),
 the Gaussian 88(TM) system (copyright 1988, Gaussian, Inc.),
 the Gaussian 86(TM) system (copyright 1986, Carnegie Mellon
 University), and the Gaussian 82(TM) system (copyright 1983,
 Carnegie Mellon University). Gaussian is a federally registered
 trademark of Gaussian, Inc.
  
 This software contains proprietary and confidential information,
 including trade secrets, belonging to Gaussian, Inc.
  
 This software is provided under written license and may be
 used, copied, transmitted, or stored only in accord with that
 written license.
  
 The following legend is applicable only to US Government
 contracts under FAR:
  
                    RESTRICTED RIGHTS LEGEND
  
 Use, reproduction and disclosure by the US Government is
 subject to restrictions as set forth in subparagraphs (a)
 and (c) of the Commercial Computer Software - Restricted
 Rights clause in FAR 52.227-19.
  
 Gaussian, Inc.
 340 Quinnipiac St., Bldg. 40, Wallingford CT 06492
  
  
 ---------------------------------------------------------------
 Warning -- This program may not be used in any manner that
 competes with the business of Gaussian, Inc. or will provide
 assistance to any competitor of Gaussian, Inc.  The licensee
 of this program is prohibited from giving any competitor of
 Gaussian, Inc. access to this program.  By using this program,
 the user acknowledges that Gaussian, Inc. is engaged in the
 business of creating and licensing software in the field of
 computational chemistry and represents and warrants to the
 licensee that it is not a competitor of Gaussian, Inc. and that
 it will not use this program in any manner prohibited above.
 ---------------------------------------------------------------
  

 Cite this work as:
 Gaussian 09, Revision C.01,
 M. J. Frisch, G. W. Trucks, H. B. Schlegel, G. E. Scuseria, 
 M. A. Robb, J. R. Cheeseman, G. Scalmani, V. Barone, B. Mennucci, 
 G. A. Petersson, H. Nakatsuji, M. Caricato, X. Li, H. P. Hratchian, 
 A. F. Izmaylov, J. Bloino, G. Zheng, J. L. Sonnenberg, M. Hada, 
 M. Ehara, K. Toyota, R. Fukuda, J. Hasegawa, M. Ishida, T. Nakajima, 
 Y. Honda, O. Kitao, H. Nakai, T. Vreven, J. A. Montgomery, Jr., 
 J. E. Peralta, F. Ogliaro, M. Bearpark, J. J. Heyd, E. Brothers, 
 K. N. Kudin, V. N. Staroverov, T. Keith, R. Kobayashi, J. Normand, 
 K. Raghavachari, A. Rendell, J. C. Burant, S. S. Iyengar, J. Tomasi, 
 M. Cossi, N. Rega, J. M. Millam, M. Klene, J. E. Knox, J. B. Cross, 
 V. Bakken, C. Adamo, J. Jaramillo, R. Gomperts, R. E. Stratmann, 
 O. Yazyev, A. J. Austin, R. Cammi, C. Pomelli, J. W. Ochterski, 
 R. L. Martin, K. Morokuma, V. G. Zakrzewski, G. A. Voth, 
 P. Salvador, J. J. Dannenberg, S. Dapprich, A. D. Daniels, 
 O. Farkas, J. B. Foresman, J. V. Ortiz, J. Cioslowski, 
 and D. J. Fox, Gaussian, Inc., Wallingford CT, 2010.
 
 ******************************************
 Gaussian 09:  EM64L-G09RevC.01 23-Sep-2011
                12-Apr-2019 
 ******************************************
 %nprocshared=4
 Will use up to    4 processors via shared memory.
 ------------------------------------------------
 # mpw1pw91/6-31+g** nmr scrf=(pcm,solvent=water)
 ------------------------------------------------
 1/38=1/1;
 2/12=2,17=6,18=5,40=1/2;
 3/5=1,6=6,7=111,11=2,16=1,25=1,30=1,70=2201,72=1,74=-7/1,2,8,3;
 4//1;
 5/5=2,38=5,53=1/2;
 8/6=1,10=90,11=11/1;
 10/13=100,45=16/2;
 6/7=2,8=2,9=2,10=2,28=1/1;
 99/9=1/99;
 -------
 comment
 -------
 Charge =  0 Multiplicity = 1
 Symbolic Z-Matrix:
 6                    -1.9163   -0.24505   1.00666 
 6                    -1.19179  -1.12494  -0.02314 
 6                    -0.91475   0.97833  -0.66986 
 6                     0.9987   -0.03431   0.57731 
 6                     0.6145    0.99903  -0.48268 
 6                     0.27727  -1.37749   0.34436 
 8                    -1.26589  -0.28814  -1.19303 
 8                    -1.59854   1.09543   0.57919 
 8                     0.88926  -2.09115  -0.71997 
 8                     2.39916  -0.30573   0.56923 
 8                     1.12298   2.25158  -0.03164 
 1                    -1.57047  -0.39525   2.0342 
 1                    -3.00072  -0.39246   0.9659 
 1                    -1.70343  -2.06219  -0.24769 
 1                    -1.26391   1.763    -1.34748 
 1                     0.70267   0.37102   1.5538 
 1                     1.06534   0.71641  -1.443 
 1                     0.315    -1.96809   1.27388 
 1                     1.84205  -1.9027   -0.63537 
 1                     2.84828   0.55349   0.49489 
 1                     1.18372   2.8474   -0.79524 
 
                          Input orientation:                          
 ---------------------------------------------------------------------
 Center     Atomic      Atomic             Coordinates (Angstroms)
 Number     Number       Type             X           Y           Z
 ---------------------------------------------------------------------
      1          6           0       -1.916304   -0.245052    1.006662
      2          6           0       -1.191789   -1.124941   -0.023135
      3          6           0       -0.914753    0.978326   -0.669864
      4          6           0        0.998700   -0.034311    0.577306
      5          6           0        0.614497    0.999028   -0.482680
      6          6           0        0.277272   -1.377486    0.344363
      7          8           0       -1.265890   -0.288140   -1.193029
      8          8           0       -1.598542    1.095433    0.579190
      9          8           0        0.889259   -2.091149   -0.719971
     10          8           0        2.399156   -0.305729    0.569227
     11          8           0        1.122983    2.251582   -0.031642
     12          1           0       -1.570472   -0.395248    2.034200
     13          1           0       -3.000717   -0.392461    0.965898
     14          1           0       -1.703428   -2.062193   -0.247694
     15          1           0       -1.263910    1.763004   -1.347476
     16          1           0        0.702673    0.371019    1.553797
     17          1           0        1.065338    0.716411   -1.442999
     18          1           0        0.315004   -1.968090    1.273883
     19          1           0        1.842047   -1.902700   -0.635369
     20          1           0        2.848278    0.553485    0.494890
     21          1           0        1.183721    2.847403   -0.795241
 ---------------------------------------------------------------------
                    Distance matrix (angstroms):
                    1          2          3          4          5
     1  C    0.000000
     2  C    1.536102   0.000000
     3  C    2.304452   2.217823   0.000000
     4  C    2.953981   2.519572   2.498433   0.000000
     5  C    3.189174   2.825791   1.540802   1.529370   0.000000
     6  C    2.555939   1.535244   2.828326   1.542349   2.538807
     7  O    2.294240   1.440270   1.414544   2.885634   2.386892
     8  O    1.442430   2.336301   1.428782   2.832312   2.456502
     9  O    3.776310   2.397895   3.560709   2.434232   3.111430
    10  O    4.337998   3.730534   3.763793   1.426538   2.448246
    11  O    4.067987   4.093794   2.486137   2.368875   1.425091
    12  H    1.094529   2.215509   3.103004   2.975477   3.612863
    13  H    1.095145   2.187906   2.984296   4.034180   4.135746
    14  H    2.218271   1.091166   3.169383   3.477704   3.846956
    15  H    3.162258   3.177941   1.093978   3.471964   2.204528
    16  H    2.745531   2.883331   2.815947   1.097934   2.132934
    17  H    3.976863   3.240558   2.141751   2.156306   1.097881
    18  H    2.831784   2.159533   3.737890   2.166140   3.461069
    19  H    4.423716   3.191222   3.987662   2.381741   3.154397
    20  H    4.858067   4.405406   3.962013   1.942482   2.478695
    21  H    4.735007   4.692410   2.812963   3.197248   1.959133
                    6          7          8          9         10
     6  C    0.000000
     7  O    2.435487   0.000000
     8  O    3.112740   2.272816   0.000000
     9  O    1.420088   2.849437   4.246325   0.000000
    10  O    2.387806   4.066745   4.236147   2.670121   0.000000
    11  O    3.745229   3.675013   3.019353   4.403151   2.920531
    12  H    2.689702   3.243339   2.083260   4.063473   4.232270
    13  H    3.478763   2.771547   2.080737   4.567232   5.415118
    14  H    2.177735   2.057270   3.265783   2.635509   4.536929
    15  H    3.885903   2.056952   2.066318   4.459192   4.622928
    16  H    2.168171   3.443078   2.601966   3.356651   2.074951
    17  H    2.863584   2.550732   3.365882   2.904508   2.621621
    18  H    1.101928   3.377442   3.678237   2.078549   2.757476
    19  H    1.919439   3.546415   4.722458   0.974923   2.076473
    20  H    3.218910   4.525901   4.480516   3.508238   0.972361
    21  H    4.468784   3.998807   3.563628   4.947895   3.644351
                   11         12         13         14         15
    11  O    0.000000
    12  H    4.304429   0.000000
    13  H    4.999095   1.785183   0.000000
    14  H    5.161776   2.829032   2.437985   0.000000
    15  H    2.769004   4.023402   3.607524   4.004351   0.000000
    16  H    2.495355   2.446455   3.826699   3.867197   3.771267
    17  H    2.086145   4.502687   4.854399   4.100666   2.555363
    18  H    4.490307   2.570396   3.683947   2.529450   4.825511
    19  H    4.259061   4.587406   5.319515   3.570171   4.857103
    20  H    2.477380   4.774403   5.943686   5.302002   4.665548
    21  H    0.970451   5.109413   5.577441   5.721850   2.733456
                   16         17         18         19         20
    16  H    0.000000
    17  H    3.038356   0.000000
    18  H    2.387482   3.892428   0.000000
    19  H    3.355655   2.848734   2.445686   0.000000
    20  H    2.399625   2.638339   3.658230   2.884932   0.000000
    21  H    3.447008   2.230411   5.312713   4.798170   3.114040
                   21
    21  H    0.000000
 Stoichiometry    C6H10O5
 Framework group  C1[X(C6H10O5)]
 Deg. of freedom    57
 Full point group                 C1      NOp   1
 Largest Abelian subgroup         C1      NOp   1
 Largest concise Abelian subgroup C1      NOp   1
                         Standard orientation:                         
 ---------------------------------------------------------------------
 Center     Atomic      Atomic             Coordinates (Angstroms)
 Number     Number       Type             X           Y           Z
 ---------------------------------------------------------------------
      1          6           0       -1.916304   -0.245051    1.006662
      2          6           0       -1.191789   -1.124941   -0.023135
      3          6           0       -0.914753    0.978326   -0.669864
      4          6           0        0.998700   -0.034311    0.577306
      5          6           0        0.614497    0.999028   -0.482680
      6          6           0        0.277272   -1.377486    0.344363
      7          8           0       -1.265890   -0.288140   -1.193029
      8          8           0       -1.598542    1.095433    0.579190
      9          8           0        0.889259   -2.091149   -0.719971
     10          8           0        2.399156   -0.305729    0.569227
     11          8           0        1.122983    2.251582   -0.031642
     12          1           0       -1.570472   -0.395248    2.034200
     13          1           0       -3.000717   -0.392460    0.965898
     14          1           0       -1.703428   -2.062193   -0.247694
     15          1           0       -1.263910    1.763004   -1.347476
     16          1           0        0.702673    0.371019    1.553797
     17          1           0        1.065338    0.716411   -1.442999
     18          1           0        0.315004   -1.968090    1.273883
     19          1           0        1.842047   -1.902700   -0.635369
     20          1           0        2.848278    0.553484    0.494890
     21          1           0        1.183722    2.847403   -0.795241
 ---------------------------------------------------------------------
 Rotational constants (GHZ):      1.4824059      1.2865648      0.8854122
 Standard basis: 6-31+G(d,p) (6D, 7F)
 There are   259 symmetry adapted basis functions of A   symmetry.
 Integral buffers will be    131072 words long.
 Raffenetti 2 integral format.
 Two-electron integral symmetry is turned on.
   259 basis functions,   422 primitive gaussians,   259 cartesian basis functions
    43 alpha electrons       43 beta electrons
       nuclear repulsion energy       727.5129941860 Hartrees.
 NAtoms=   21 NActive=   21 NUniq=   21 SFac= 1.00D+00 NAtFMM=   60 NAOKFM=F Big=F
 ------------------------------------------------------------------------------
 Polarizable Continuum Model (PCM)
 =================================
 Model                : PCM.
 Atomic radii         : UFF (Universal Force Field).
 Polarization charges : Total charges.
 Charge compensation  : None.
 Solution method      : Matrix inversion.
 Cavity type          : Scaled VdW (van der Waals Surface) (Alpha=1.100).
 Cavity algorithm     : GePol (No added spheres)
                        Default sphere list used, NSphG=   21.
                        Lebedev-Laikov grids with approx.  5.0 points / Ang**2.
                        Smoothing algorithm: Karplus/York (Gamma=1.0000).
                        Polarization charges: spherical gaussians, with
                                              point-specific exponents (IZeta= 3).
                        Self-potential: point-specific (ISelfS= 7).
                        Self-field    : sphere-specific E.n sum rule (ISelfD= 2).
 Solvent              : Water, Eps=  78.355300 Eps(inf)=   1.777849
 ------------------------------------------------------------------------------
 One-electron integrals computed using PRISM.
 NBasis=   259 RedAO= T  NBF=   259
 NBsUse=   259 1.00D-06 NBFU=   259
 Harris functional with IExCor=  908 diagonalized for initial guess.
 ExpMin= 4.38D-02 ExpMax= 5.48D+03 ExpMxC= 8.25D+02 IAcc=2 IRadAn=         4 AccDes= 0.00D+00
 HarFok:  IExCor=  908 AccDes= 0.00D+00 IRadAn=         4 IDoV= 1
 ScaDFX=  1.000000  1.000000  1.000000  1.000000
 FoFCou: FMM=F IPFlag=           0 FMFlag=      100000 FMFlg1=           0
         NFxFlg=           0 DoJE=T BraDBF=F KetDBF=T FulRan=T
         Omega=  0.000000  0.000000  1.000000  0.000000  0.000000 ICntrl=     500 IOpCl=  0
         NMat0=    1 NMatS0=    1 NMatT0=    0 NMatD0=    1 NMtDS0=    0 NMtDT0=    0
         I1Cent=           4 NGrid=           0.
 Petite list used in FoFCou.
 Initial guess orbital symmetries:
       Occupied  (A) (A) (A) (A) (A) (A) (A) (A) (A) (A) (A) (A)
                 (A) (A) (A) (A) (A) (A) (A) (A) (A) (A) (A) (A)
                 (A) (A) (A) (A) (A) (A) (A) (A) (A) (A) (A) (A)
                 (A) (A) (A) (A) (A) (A) (A)
       Virtual   (A) (A) (A) (A) (A) (A) (A) (A) (A) (A) (A) (A)
                 (A) (A) (A) (A) (A) (A) (A) (A) (A) (A) (A) (A)
                 (A) (A) (A) (A) (A) (A) (A) (A) (A) (A) (A) (A)
                 (A) (A) (A) (A) (A) (A) (A) (A) (A) (A) (A) (A)
                 (A) (A) (A) (A) (A) (A) (A) (A) (A) (A) (A) (A)
                 (A) (A) (A) (A) (A) (A) (A) (A) (A) (A) (A) (A)
                 (A) (A) (A) (A) (A) (A) (A) (A) (A) (A) (A) (A)
                 (A) (A) (A) (A) (A) (A) (A) (A) (A) (A) (A) (A)
                 (A) (A) (A) (A) (A) (A) (A) (A) (A) (A) (A) (A)
                 (A) (A) (A) (A) (A) (A) (A) (A) (A) (A) (A) (A)
                 (A) (A) (A) (A) (A) (A) (A) (A) (A) (A) (A) (A)
                 (A) (A) (A) (A) (A) (A) (A) (A) (A) (A) (A) (A)
                 (A) (A) (A) (A) (A) (A) (A) (A) (A) (A) (A) (A)
                 (A) (A) (A) (A) (A) (A) (A) (A) (A) (A) (A) (A)
                 (A) (A) (A) (A) (A) (A) (A) (A) (A) (A) (A) (A)
                 (A) (A) (A) (A) (A) (A) (A) (A) (A) (A) (A) (A)
                 (A) (A) (A) (A) (A) (A) (A) (A) (A) (A) (A) (A)
                 (A) (A) (A) (A) (A) (A) (A) (A) (A) (A) (A) (A)
 The electronic state of the initial guess is 1-A.
 Requested convergence on RMS density matrix=1.00D-08 within 128 cycles.
 Requested convergence on MAX density matrix=1.00D-06.
 Requested convergence on             energy=1.00D-06.
 No special actions if energy rises.
 Error on total polarization charges =  0.01158
 SCF Done:  E(RmPW1PW91) =  -610.651747728     A.U. after   12 cycles
             Convg  =    0.5110D-08             -V/T =  2.0090
 Range of M.O.s used for correlation:     1   259
 NBasis=   259 NAE=    43 NBE=    43 NFC=     0 NFV=     0
 NROrb=    259 NOA=    43 NOB=    43 NVA=   216 NVB=   216

 **** Warning!!: The largest alpha MO coefficient is  0.56595731D+02

 NEqPCM:  Using equilibrium solvation (IEInf=0, Eps=  78.3553, EpsInf=   1.7778)
          Differentiating once with respect to magnetic field using GIAOs.
          Electric field/nuclear overlap derivatives assumed to be zero.
 FoFCou: FMM=F IPFlag=           0 FMFlag=    10101102 FMFlg1=           0
         NFxFlg=    40000000 DoJE=F BraDBF=F KetDBF=T FulRan=T
         Omega=  0.000000  0.000000  1.000000  0.000000  0.000000 ICntrl=    6100 IOpCl=  0
         NMat0=    1 NMatS0=    1 NMatT0=    0 NMatD0=    1 NMtDS0=    0 NMtDT0=    0
         I1Cent=           7 NGrid=        1539.
 Symmetry not used in FoFCou.
          There are     3 degrees of freedom in the 1st order CPHF.  IDoFFX=0.
      3 vectors produced by pass  0 Test12= 3.10D-13 3.33D-08 XBig12= 2.03D+01 7.35D-01.
 AX will form     3 AO Fock derivatives at one time.
      3 vectors produced by pass  1 Test12= 3.10D-13 3.33D-08 XBig12= 4.55D-02 3.05D-02.
      3 vectors produced by pass  2 Test12= 3.10D-13 3.33D-08 XBig12= 1.00D-04 1.57D-03.
      3 vectors produced by pass  3 Test12= 3.10D-13 3.33D-08 XBig12= 4.72D-07 1.30D-04.
      3 vectors produced by pass  4 Test12= 3.10D-13 3.33D-08 XBig12= 1.50D-09 4.86D-06.
      3 vectors produced by pass  5 Test12= 3.10D-13 3.33D-08 XBig12= 4.55D-12 3.55D-07.
 Inverted reduced A of dimension    18 with in-core refinement.
 Calculating GIAO nuclear magnetic shielding tensors.
 SCF GIAO Magnetic shielding tensor (ppm):
      1  C    Isotropic =   129.4062   Anisotropy =    62.4649
   XX=   109.0848   YX=    11.4872   ZX=   -13.9433
   XY=     8.9844   YY=   164.6453   ZY=    -9.8792
   XZ=    -9.2424   YZ=   -18.3142   ZZ=   114.4887
   Eigenvalues:    99.8725   117.2967   171.0495
      2  C    Isotropic =   117.6970   Anisotropy =    53.4076
   XX=   102.8074   YX=   -12.3832   ZX=    -7.7481
   XY=    -5.9942   YY=   115.9651   ZY=   -20.1643
   XZ=    -1.4475   YZ=   -32.9721   ZZ=   134.3185
   Eigenvalues:    89.3521   110.4369   153.3020
      3  C    Isotropic =    92.5721   Anisotropy =    25.0356
   XX=    85.4980   YX=    17.6404   ZX=   -15.3526
   XY=     4.4509   YY=    97.0160   ZY=    15.0338
   XZ=   -11.0893   YZ=    11.0677   ZZ=    95.2024
   Eigenvalues:    67.0063   101.4476   109.2625
      4  C    Isotropic =   124.6213   Anisotropy =    35.9649
   XX=   146.5312   YX=   -11.3096   ZX=     5.1506
   XY=    -4.4993   YY=   117.7989   ZY=    -3.4279
   XZ=    -3.2960   YZ=     1.1616   ZZ=   109.5338
   Eigenvalues:   109.3806   115.8854   148.5979
      5  C    Isotropic =   119.8304   Anisotropy =    26.0140
   XX=   124.3040   YX=     8.6022   ZX=     5.2859
   XY=    -0.3898   YY=   130.2996   ZY=     2.3186
   XZ=     7.8723   YZ=    18.8522   ZZ=   104.8875
   Eigenvalues:   100.0652   122.2529   137.1730
      6  C    Isotropic =   124.8980   Anisotropy =    43.5158
   XX=   124.3617   YX=   -18.3423   ZX=   -19.9467
   XY=    -9.2508   YY=   117.0867   ZY=    11.3468
   XZ=    -7.8212   YZ=    17.1378   ZZ=   133.2456
   Eigenvalues:   105.8942   114.8913   153.9085
      7  O    Isotropic =   237.5818   Anisotropy =    51.2672
   XX=   203.8381   YX=    38.7745   ZX=   -26.0953
   XY=    21.9232   YY=   256.0842   ZY=    23.7588
   XZ=   -41.2070   YZ=    10.6907   ZZ=   252.8229
   Eigenvalues:   172.2157   268.7697   271.7599
      8  O    Isotropic =   273.4972   Anisotropy =   102.1675
   XX=   216.9168   YX=    12.7063   ZX=   -60.3172
   XY=    15.5508   YY=   303.5562   ZY=    18.0173
   XZ=   -51.7863   YZ=    43.5761   ZZ=   300.0185
   Eigenvalues:   182.7440   296.1386   341.6088
      9  O    Isotropic =   309.6905   Anisotropy =    26.5546
   XX=   326.5188   YX=     3.2885   ZX=     2.9864
   XY=     1.2299   YY=   295.6098   ZY=    -4.5698
   XZ=   -10.6876   YZ=     5.4012   ZZ=   306.9428
   Eigenvalues:   295.4021   306.2758   327.3935
     10  O    Isotropic =   308.3975   Anisotropy =    32.7363
   XX=   319.8095   YX=     8.7970   ZX=     1.6458
   XY=    11.3928   YY=   314.0462   ZY=   -18.4747
   XZ=    -4.3795   YZ=   -10.3242   ZZ=   291.3370
   Eigenvalues:   284.0504   310.9204   330.2217
     11  O    Isotropic =   305.3397   Anisotropy =    53.9255
   XX=   269.2446   YX=    -8.9341   ZX=    -2.4401
   XY=    12.7120   YY=   332.4885   ZY=   -12.0820
   XZ=     4.4382   YZ=   -18.7092   ZZ=   314.2860
   Eigenvalues:   269.1370   305.5921   341.2901
     12  H    Isotropic =    27.7371   Anisotropy =     7.2908
   XX=    25.8718   YX=     0.5507   ZX=    -1.2157
   XY=    -0.2110   YY=    26.0644   ZY=    -3.4497
   XZ=    -2.1599   YZ=    -1.3105   ZZ=    31.2751
   Eigenvalues:    24.8366    25.7770    32.5977
     13  H    Isotropic =    27.6546   Anisotropy =    11.6187
   XX=    33.1947   YX=     2.4636   ZX=    -3.4852
   XY=     3.9224   YY=    26.7106   ZY=    -0.9644
   XZ=    -2.9266   YZ=    -0.9334   ZZ=    23.0584
   Eigenvalues:    22.1294    25.4339    35.4004
     14  H    Isotropic =    26.9222   Anisotropy =     8.2768
   XX=    27.0081   YX=     3.8556   ZX=     0.7191
   XY=     2.8874   YY=    30.3230   ZY=     0.2993
   XZ=    -0.2599   YZ=    -1.5232   ZZ=    23.4355
   Eigenvalues:    23.2556    25.0709    32.4401
     15  H    Isotropic =    26.2355   Anisotropy =     7.4164
   XX=    24.2932   YX=    -1.3031   ZX=     0.8264
   XY=    -1.0292   YY=    27.3652   ZY=    -3.4330
   XZ=     1.2412   YZ=    -3.8020   ZZ=    27.0480
   Eigenvalues:    23.5764    23.9503    31.1798
     16  H    Isotropic =    27.7122   Anisotropy =     4.5148
   XX=    30.3912   YX=    -1.5550   ZX=    -0.9663
   XY=    -0.5005   YY=    24.1505   ZY=     1.1063
   XZ=     0.3742   YZ=     2.0712   ZZ=    28.5948
   Eigenvalues:    23.5250    28.8895    30.7221
     17  H    Isotropic =    27.8505   Anisotropy =     3.4013
   XX=    26.1052   YX=     2.1507   ZX=    -1.1781
   XY=     1.9612   YY=    29.0343   ZY=     1.2400
   XZ=    -1.5180   YZ=     0.5319   ZZ=    28.4120
   Eigenvalues:    24.4028    29.0306    30.1180
     18  H    Isotropic =    27.5579   Anisotropy =     7.2127
   XX=    24.2482   YX=    -0.6022   ZX=    -1.7935
   XY=    -1.7605   YY=    27.5598   ZY=    -1.9836
   XZ=    -0.8756   YZ=    -3.2785   ZZ=    30.8658
   Eigenvalues:    23.2286    27.0788    32.3664
     19  H    Isotropic =    28.3315   Anisotropy =    17.4568
   XX=    39.8070   YX=     1.6789   ZX=     0.0036
   XY=     1.3988   YY=    24.7681   ZY=     6.2189
   XZ=    -0.4364   YZ=     4.7806   ZZ=    20.4194
   Eigenvalues:    16.6325    28.3926    39.9693
     20  H    Isotropic =    28.9377   Anisotropy =    18.5227
   XX=    32.6987   YX=     7.2565   ZX=     1.0242
   XY=     6.7721   YY=    35.5358   ZY=    -0.9249
   XZ=     1.5176   YZ=    -2.5320   ZZ=    18.5787
   Eigenvalues:    18.0802    27.4468    41.2862
     21  H    Isotropic =    29.6269   Anisotropy =    20.8830
   XX=    21.9407   YX=     4.5624   ZX=    -0.6582
   XY=     3.7623   YY=    35.0012   ZY=    -9.6142
   XZ=    -1.3996   YZ=    -8.9158   ZZ=    31.9387
   Eigenvalues:    20.3186    25.0131    43.5489
 End of Minotr Frequency-dependent properties file   721 does not exist.
 End of Minotr Frequency-dependent properties file   722 does not exist.

 **********************************************************************

            Population analysis using the SCF density.

 **********************************************************************

 Orbital symmetries:
       Occupied  (A) (A) (A) (A) (A) (A) (A) (A) (A) (A) (A) (A)
                 (A) (A) (A) (A) (A) (A) (A) (A) (A) (A) (A) (A)
                 (A) (A) (A) (A) (A) (A) (A) (A) (A) (A) (A) (A)
                 (A) (A) (A) (A) (A) (A) (A)
       Virtual   (A) (A) (A) (A) (A) (A) (A) (A) (A) (A) (A) (A)
                 (A) (A) (A) (A) (A) (A) (A) (A) (A) (A) (A) (A)
                 (A) (A) (A) (A) (A) (A) (A) (A) (A) (A) (A) (A)
                 (A) (A) (A) (A) (A) (A) (A) (A) (A) (A) (A) (A)
                 (A) (A) (A) (A) (A) (A) (A) (A) (A) (A) (A) (A)
                 (A) (A) (A) (A) (A) (A) (A) (A) (A) (A) (A) (A)
                 (A) (A) (A) (A) (A) (A) (A) (A) (A) (A) (A) (A)
                 (A) (A) (A) (A) (A) (A) (A) (A) (A) (A) (A) (A)
                 (A) (A) (A) (A) (A) (A) (A) (A) (A) (A) (A) (A)
                 (A) (A) (A) (A) (A) (A) (A) (A) (A) (A) (A) (A)
                 (A) (A) (A) (A) (A) (A) (A) (A) (A) (A) (A) (A)
                 (A) (A) (A) (A) (A) (A) (A) (A) (A) (A) (A) (A)
                 (A) (A) (A) (A) (A) (A) (A) (A) (A) (A) (A) (A)
                 (A) (A) (A) (A) (A) (A) (A) (A) (A) (A) (A) (A)
                 (A) (A) (A) (A) (A) (A) (A) (A) (A) (A) (A) (A)
                 (A) (A) (A) (A) (A) (A) (A) (A) (A) (A) (A) (A)
                 (A) (A) (A) (A) (A) (A) (A) (A) (A) (A) (A) (A)
                 (A) (A) (A) (A) (A) (A) (A) (A) (A) (A) (A) (A)
 The electronic state is 1-A.
 Alpha  occ. eigenvalues --  -19.27721 -19.27042 -19.27021 -19.26914 -19.25765
 Alpha  occ. eigenvalues --  -10.35908 -10.31984 -10.31603 -10.31580 -10.31314
 Alpha  occ. eigenvalues --  -10.30901  -1.14359  -1.08970  -1.07203  -1.05441
 Alpha  occ. eigenvalues --   -1.03918  -0.82674  -0.81327  -0.70558  -0.68278
 Alpha  occ. eigenvalues --   -0.65269  -0.60695  -0.57147  -0.56910  -0.53113
 Alpha  occ. eigenvalues --   -0.52702  -0.50986  -0.49124  -0.48364  -0.46511
 Alpha  occ. eigenvalues --   -0.45495  -0.43109  -0.41966  -0.39808  -0.39524
 Alpha  occ. eigenvalues --   -0.37859  -0.37192  -0.35667  -0.33581  -0.31802
 Alpha  occ. eigenvalues --   -0.30797  -0.29655  -0.27613
 Alpha virt. eigenvalues --    0.00529   0.01316   0.01770   0.02719   0.03903
 Alpha virt. eigenvalues --    0.04722   0.05455   0.05576   0.05848   0.07851
 Alpha virt. eigenvalues --    0.08212   0.09824   0.09867   0.10244   0.11634
 Alpha virt. eigenvalues --    0.12357   0.12845   0.13593   0.13841   0.14356
 Alpha virt. eigenvalues --    0.14953   0.15681   0.16528   0.16800   0.17016
 Alpha virt. eigenvalues --    0.18123   0.18911   0.19856   0.19960   0.21151
 Alpha virt. eigenvalues --    0.21872   0.22199   0.22930   0.23392   0.23946
 Alpha virt. eigenvalues --    0.24543   0.25327   0.25934   0.26886   0.27674
 Alpha virt. eigenvalues --    0.27758   0.28391   0.28681   0.30046   0.30330
 Alpha virt. eigenvalues --    0.31151   0.31306   0.31858   0.33516   0.33928
 Alpha virt. eigenvalues --    0.35337   0.35728   0.35904   0.36692   0.37108
 Alpha virt. eigenvalues --    0.37877   0.37891   0.38657   0.39663   0.40222
 Alpha virt. eigenvalues --    0.41016   0.42392   0.43737   0.45099   0.46952
 Alpha virt. eigenvalues --    0.48313   0.64913   0.67052   0.67576   0.68834
 Alpha virt. eigenvalues --    0.69940   0.71435   0.75503   0.76894   0.77527
 Alpha virt. eigenvalues --    0.79183   0.81258   0.83451   0.84359   0.85845
 Alpha virt. eigenvalues --    0.87987   0.89855   0.95310   0.96500   0.99101
 Alpha virt. eigenvalues --    1.02282   1.03763   1.04484   1.05980   1.07186
 Alpha virt. eigenvalues --    1.08778   1.09978   1.11592   1.13187   1.15210
 Alpha virt. eigenvalues --    1.19593   1.20792   1.21611   1.26332   1.26865
 Alpha virt. eigenvalues --    1.28001   1.30171   1.31123   1.32581   1.34208
 Alpha virt. eigenvalues --    1.34802   1.35421   1.37191   1.39678   1.41487
 Alpha virt. eigenvalues --    1.43813   1.45237   1.47659   1.48426   1.51574
 Alpha virt. eigenvalues --    1.54927   1.56045   1.57759   1.58822   1.59991
 Alpha virt. eigenvalues --    1.61533   1.64701   1.66453   1.66847   1.67912
 Alpha virt. eigenvalues --    1.70172   1.73703   1.74621   1.75962   1.78773
 Alpha virt. eigenvalues --    1.83039   1.83626   1.84774   1.85675   1.88118
 Alpha virt. eigenvalues --    1.90117   1.93336   1.94564   1.97530   1.99289
 Alpha virt. eigenvalues --    2.01467   2.02797   2.05314   2.07125   2.07966
 Alpha virt. eigenvalues --    2.09821   2.13105   2.15671   2.16831   2.17285
 Alpha virt. eigenvalues --    2.20086   2.20829   2.22549   2.24911   2.29775
 Alpha virt. eigenvalues --    2.30477   2.34656   2.39028   2.40909   2.41621
 Alpha virt. eigenvalues --    2.44756   2.47015   2.48840   2.49901   2.52175
 Alpha virt. eigenvalues --    2.54296   2.57494   2.60508   2.62063   2.64277
 Alpha virt. eigenvalues --    2.64909   2.67079   2.67580   2.69156   2.70656
 Alpha virt. eigenvalues --    2.73340   2.77513   2.78183   2.78923   2.81197
 Alpha virt. eigenvalues --    2.83338   2.85597   2.87217   2.89299   2.90825
 Alpha virt. eigenvalues --    2.94734   2.96823   2.97440   3.00645   3.01407
 Alpha virt. eigenvalues --    3.04102   3.09765   3.11641   3.13585   3.24068
 Alpha virt. eigenvalues --    3.35240   3.40450   3.40953   3.47230   3.49104
 Alpha virt. eigenvalues --    3.52564   3.53074   3.54221   3.58410   3.59498
 Alpha virt. eigenvalues --    4.33684   4.35832   4.40217   4.46933   4.51821
 Alpha virt. eigenvalues --    4.60298   4.63539   4.75230   4.83130   4.90281
 Alpha virt. eigenvalues --    5.02188
          Condensed to atoms (all electrons):
              1          2          3          4          5          6
     1  C    5.598205  -0.298498  -0.557544  -0.186651   0.376149   0.144098
     2  C   -0.298498   6.947858  -0.157197   0.233271  -0.225282  -0.720566
     3  C   -0.557544  -0.157197   6.942808   0.077718  -1.274221   0.275371
     4  C   -0.186651   0.233271   0.077718   6.480698  -0.312111  -0.271989
     5  C    0.376149  -0.225282  -1.274221  -0.312111   7.294999  -0.397271
     6  C    0.144098  -0.720566   0.275371  -0.271989  -0.397271   6.499369
     7  O   -0.043293   0.142579   0.299943  -0.059992  -0.059757  -0.094741
     8  O    0.204659  -0.125319   0.359581   0.003573  -0.228427  -0.018628
     9  O    0.041814  -0.182308  -0.073311  -0.150601   0.133242   0.283608
    10  O   -0.012120   0.042094   0.028544   0.146326  -0.020272  -0.134600
    11  O    0.016757  -0.025486  -0.104432  -0.130815   0.228525   0.075958
    12  H    0.458633  -0.158451   0.005958  -0.044777   0.024449   0.072910
    13  H    0.377946   0.006750   0.000934   0.012958  -0.007557  -0.008521
    14  H    0.018185   0.283572   0.008630   0.012948  -0.003584   0.026315
    15  H    0.012885   0.029587   0.335515   0.031168  -0.004414  -0.025675
    16  H    0.013038  -0.035889   0.005440   0.269254   0.014265   0.012878
    17  H    0.007201  -0.026724  -0.031999  -0.149017   0.438935   0.047707
    18  H    0.031407  -0.042726  -0.045032   0.001914   0.075352   0.277504
    19  H   -0.006033   0.022945  -0.000736  -0.044749  -0.020008   0.036950
    20  H    0.001138  -0.011276   0.018498   0.053923  -0.090389   0.035266
    21  H   -0.002252   0.005849  -0.039912   0.016568   0.042344  -0.012830
              7          8          9         10         11         12
     1  C   -0.043293   0.204659   0.041814  -0.012120   0.016757   0.458633
     2  C    0.142579  -0.125319  -0.182308   0.042094  -0.025486  -0.158451
     3  C    0.299943   0.359581  -0.073311   0.028544  -0.104432   0.005958
     4  C   -0.059992   0.003573  -0.150601   0.146326  -0.130815  -0.044777
     5  C   -0.059757  -0.228427   0.133242  -0.020272   0.228525   0.024449
     6  C   -0.094741  -0.018628   0.283608  -0.134600   0.075958   0.072910
     7  O    8.243216  -0.055479   0.017874  -0.003091   0.006457   0.011703
     8  O   -0.055479   8.343804   0.002910  -0.000823   0.012873  -0.046563
     9  O    0.017874   0.002910   8.289517  -0.008272  -0.002923   0.000006
    10  O   -0.003091  -0.000823  -0.008272   8.337479  -0.017399  -0.000212
    11  O    0.006457   0.012873  -0.002923  -0.017399   8.291984  -0.000007
    12  H    0.011703  -0.046563   0.000006  -0.000212  -0.000007   0.527144
    13  H   -0.003852  -0.051136  -0.000256   0.000016   0.000021  -0.036466
    14  H   -0.036081   0.006911   0.001079  -0.000703   0.000061   0.001994
    15  H   -0.044622  -0.047204   0.000328  -0.000747  -0.004137  -0.000251
    16  H   -0.000770   0.007283   0.007351  -0.030391  -0.001593   0.001400
    17  H    0.000702   0.011364   0.005311   0.008351  -0.044650  -0.000018
    18  H    0.007665   0.000431  -0.039348  -0.001374  -0.000808   0.000200
    19  H   -0.002121   0.000177   0.240049   0.025225  -0.000100  -0.000006
    20  H    0.000091   0.000079  -0.000832   0.231892   0.017497   0.000001
    21  H    0.000310  -0.001114   0.000228   0.000349   0.241714  -0.000002
             13         14         15         16         17         18
     1  C    0.377946   0.018185   0.012885   0.013038   0.007201   0.031407
     2  C    0.006750   0.283572   0.029587  -0.035889  -0.026724  -0.042726
     3  C    0.000934   0.008630   0.335515   0.005440  -0.031999  -0.045032
     4  C    0.012958   0.012948   0.031168   0.269254  -0.149017   0.001914
     5  C   -0.007557  -0.003584  -0.004414   0.014265   0.438935   0.075352
     6  C   -0.008521   0.026315  -0.025675   0.012878   0.047707   0.277504
     7  O   -0.003852  -0.036081  -0.044622  -0.000770   0.000702   0.007665
     8  O   -0.051136   0.006911  -0.047204   0.007283   0.011364   0.000431
     9  O   -0.000256   0.001079   0.000328   0.007351   0.005311  -0.039348
    10  O    0.000016  -0.000703  -0.000747  -0.030391   0.008351  -0.001374
    11  O    0.000021   0.000061  -0.004137  -0.001593  -0.044650  -0.000808
    12  H   -0.036466   0.001994  -0.000251   0.001400  -0.000018   0.000200
    13  H    0.531741  -0.003039   0.000362   0.000035   0.000021  -0.000040
    14  H   -0.003039   0.495242   0.000014  -0.000150  -0.000043  -0.002375
    15  H    0.000362   0.000014   0.532617  -0.000282  -0.002337   0.000022
    16  H    0.000035  -0.000150  -0.000282   0.549352   0.004671  -0.003462
    17  H    0.000021  -0.000043  -0.002337   0.004671   0.546564  -0.000141
    18  H   -0.000040  -0.002375   0.000022  -0.003462  -0.000141   0.568269
    19  H    0.000004  -0.000080  -0.000001   0.000553   0.000576  -0.002448
    20  H    0.000000   0.000005  -0.000001  -0.004033  -0.001584  -0.000198
    21  H    0.000000   0.000000   0.002221   0.000152  -0.006462   0.000005
             19         20         21
     1  C   -0.006033   0.001138  -0.002252
     2  C    0.022945  -0.011276   0.005849
     3  C   -0.000736   0.018498  -0.039912
     4  C   -0.044749   0.053923   0.016568
     5  C   -0.020008  -0.090389   0.042344
     6  C    0.036950   0.035266  -0.012830
     7  O   -0.002121   0.000091   0.000310
     8  O    0.000177   0.000079  -0.001114
     9  O    0.240049  -0.000832   0.000228
    10  O    0.025225   0.231892   0.000349
    11  O   -0.000100   0.017497   0.241714
    12  H   -0.000006   0.000001  -0.000002
    13  H    0.000004   0.000000   0.000000
    14  H   -0.000080   0.000005   0.000000
    15  H   -0.000001  -0.000001   0.002221
    16  H    0.000553  -0.004033   0.000152
    17  H    0.000576  -0.001584  -0.006462
    18  H   -0.002448  -0.000198   0.000005
    19  H    0.360980  -0.000964  -0.000001
    20  H   -0.000964   0.359990  -0.001036
    21  H   -0.000001  -0.001036   0.358041
 Mulliken atomic charges:
              1
     1  C   -0.195724
     2  C    0.295219
     3  C   -0.074556
     4  C    0.010383
     5  C    0.015034
     6  C   -0.103115
     7  O   -0.326741
     8  O   -0.378951
     9  O   -0.565465
    10  O   -0.590274
    11  O   -0.559497
    12  H    0.182354
    13  H    0.180079
    14  H    0.191100
    15  H    0.184952
    16  H    0.190900
    17  H    0.191573
    18  H    0.175181
    19  H    0.389787
    20  H    0.391932
    21  H    0.395828
 Sum of Mulliken atomic charges =   0.00000
 Mulliken charges with hydrogens summed into heavy atoms:
              1
     1  C    0.166708
     2  C    0.486319
     3  C    0.110397
     4  C    0.201283
     5  C    0.206607
     6  C    0.072066
     7  O   -0.326741
     8  O   -0.378951
     9  O   -0.175679
    10  O   -0.198341
    11  O   -0.163669
 Sum of Mulliken charges with hydrogens summed into heavy atoms =   0.00000
 Electronic spatial extent (au):  <R**2>=           1430.0305
 Charge=              0.0000 electrons
 Dipole moment (field-independent basis, Debye):
    X=              0.5133    Y=              1.3788    Z=              0.3628  Tot=              1.5154
 Quadrupole moment (field-independent basis, Debye-Ang):
   XX=            -61.6365   YY=            -65.5117   ZZ=            -64.6140
   XY=              8.0302   XZ=             -5.2577   YZ=            -12.1077
 Traceless Quadrupole moment (field-independent basis, Debye-Ang):
   XX=              2.2842   YY=             -1.5909   ZZ=             -0.6933
   XY=              8.0302   XZ=             -5.2577   YZ=            -12.1077
 Octapole moment (field-independent basis, Debye-Ang**2):
  XXX=             12.9471  YYY=             23.3478  ZZZ=              4.2472  XYY=              4.4314
  XXY=             -0.4727  XXZ=             -3.8274  XZZ=              3.7861  YZZ=              9.9497
  YYZ=            -13.7823  XYZ=              2.7564
 Hexadecapole moment (field-independent basis, Debye-Ang**3):
 XXXX=           -745.4316 YYYY=           -658.1816 ZZZZ=           -271.3968 XXXY=             39.5372
 XXXZ=            -23.3067 YYYX=             32.5815 YYYZ=            -65.9003 ZZZX=            -11.9289
 ZZZY=            -13.7087 XXYY=           -228.7307 XXZZ=           -181.6670 YYZZ=           -150.4446
 XXYZ=             -2.1229 YYXZ=             -5.6572 ZZXY=              5.5346
 N-N= 7.275129941860D+02 E-N=-2.885115474447D+03  KE= 6.052132976273D+02
 1\1\GINC-COMPUTE-8-9\SP\RmPW1PW91\6-31+G(d,p)\C6H10O5\MMARCARINO.IQUIR
 \12-Apr-2019\0\\# mpw1pw91/6-31+g** nmr scrf=(pcm,solvent=water)\\comm
 ent\\0,1\C,0,-1.916304,-0.245052,1.006662\C,0,-1.191789,-1.124941,-0.0
 23135\C,0,-0.914753,0.978326,-0.669864\C,0,0.9987,-0.034311,0.577306\C
 ,0,0.614497,0.999028,-0.48268\C,0,0.277272,-1.377486,0.344363\O,0,-1.2
 6589,-0.28814,-1.193029\O,0,-1.598542,1.095433,0.57919\O,0,0.889259,-2
 .091149,-0.719971\O,0,2.399156,-0.305729,0.569227\O,0,1.122983,2.25158
 2,-0.031642\H,0,-1.570472,-0.395248,2.0342\H,0,-3.000717,-0.392461,0.9
 65898\H,0,-1.703428,-2.062193,-0.247694\H,0,-1.26391,1.763004,-1.34747
 6\H,0,0.702673,0.371019,1.553797\H,0,1.065338,0.716411,-1.442999\H,0,0
 .315004,-1.96809,1.273883\H,0,1.842047,-1.9027,-0.635369\H,0,2.848278,
 0.553485,0.49489\H,0,1.183721,2.847403,-0.795241\\Version=EM64L-G09Rev
 C.01\State=1-A\HF=-610.6517477\RMSD=5.110e-09\Dipole=0.2019654,0.54247
 4,0.1427446\Quadrupole=1.6982549,-1.1828183,-0.5154366,5.9702906,-3.90
 89856,-9.0017491\PG=C01 [X(C6H10O5)]\\@


 WOMEN HOLD UP HALF THE SKY. -- MAO TSE TUNG
 Job cpu time:  0 days  0 hours 16 minutes 23.2 seconds.
 File lengths (MBytes):  RWF=     83 Int=      0 D2E=      0 Chk=      5 Scr=      1
 Normal termination of Gaussian 09 at Fri Apr 12 12:29:06 2019.
