 Entering Gaussian System, Link 0=g09
 Input=/home/asarotti.iquir/SCF3/08_SRR_Levo02_OPTB_energy_b3lyp_smd.gjc
 Output=/home/asarotti.iquir/SCF3/08_SRR_Levo02_OPTB_energy_b3lyp_smd.log
 Initial command:
 /share/apps/Gaussian09/EM64T.SSE4.2-enabled/g09/l1.exe /tmp/Gau-9841.inp -scrdir=/tmp/
 Entering Link 1 = /share/apps/Gaussian09/EM64T.SSE4.2-enabled/g09/l1.exe PID=      9842.
  
 Copyright (c) 1988,1990,1992,1993,1995,1998,2003,2009,2011,
            Gaussian, Inc.  All Rights Reserved.
  
 This is part of the Gaussian(R) 09 program.  It is based on
 the Gaussian(R) 03 system (copyright 2003, Gaussian, Inc.),
 the Gaussian(R) 98 system (copyright 1998, Gaussian, Inc.),
 the Gaussian(R) 94 system (copyright 1995, Gaussian, Inc.),
 the Gaussian 92(TM) system (copyright 1992, Gaussian, Inc.),
 the Gaussian 90(TM) system (copyright 1990, Gaussian, Inc.),
 the Gaussian 88(TM) system (copyright 1988, Gaussian, Inc.),
 the Gaussian 86(TM) system (copyright 1986, Carnegie Mellon
 University), and the Gaussian 82(TM) system (copyright 1983,
 Carnegie Mellon University). Gaussian is a federally registered
 trademark of Gaussian, Inc.
  
 This software contains proprietary and confidential information,
 including trade secrets, belonging to Gaussian, Inc.
  
 This software is provided under written license and may be
 used, copied, transmitted, or stored only in accord with that
 written license.
  
 The following legend is applicable only to US Government
 contracts under FAR:
  
                    RESTRICTED RIGHTS LEGEND
  
 Use, reproduction and disclosure by the US Government is
 subject to restrictions as set forth in subparagraphs (a)
 and (c) of the Commercial Computer Software - Restricted
 Rights clause in FAR 52.227-19.
  
 Gaussian, Inc.
 340 Quinnipiac St., Bldg. 40, Wallingford CT 06492
  
  
 ---------------------------------------------------------------
 Warning -- This program may not be used in any manner that
 competes with the business of Gaussian, Inc. or will provide
 assistance to any competitor of Gaussian, Inc.  The licensee
 of this program is prohibited from giving any competitor of
 Gaussian, Inc. access to this program.  By using this program,
 the user acknowledges that Gaussian, Inc. is engaged in the
 business of creating and licensing software in the field of
 computational chemistry and represents and warrants to the
 licensee that it is not a competitor of Gaussian, Inc. and that
 it will not use this program in any manner prohibited above.
 ---------------------------------------------------------------
  

 Cite this work as:
 Gaussian 09, Revision C.01,
 M. J. Frisch, G. W. Trucks, H. B. Schlegel, G. E. Scuseria, 
 M. A. Robb, J. R. Cheeseman, G. Scalmani, V. Barone, B. Mennucci, 
 G. A. Petersson, H. Nakatsuji, M. Caricato, X. Li, H. P. Hratchian, 
 A. F. Izmaylov, J. Bloino, G. Zheng, J. L. Sonnenberg, M. Hada, 
 M. Ehara, K. Toyota, R. Fukuda, J. Hasegawa, M. Ishida, T. Nakajima, 
 Y. Honda, O. Kitao, H. Nakai, T. Vreven, J. A. Montgomery, Jr., 
 J. E. Peralta, F. Ogliaro, M. Bearpark, J. J. Heyd, E. Brothers, 
 K. N. Kudin, V. N. Staroverov, T. Keith, R. Kobayashi, J. Normand, 
 K. Raghavachari, A. Rendell, J. C. Burant, S. S. Iyengar, J. Tomasi, 
 M. Cossi, N. Rega, J. M. Millam, M. Klene, J. E. Knox, J. B. Cross, 
 V. Bakken, C. Adamo, J. Jaramillo, R. Gomperts, R. E. Stratmann, 
 O. Yazyev, A. J. Austin, R. Cammi, C. Pomelli, J. W. Ochterski, 
 R. L. Martin, K. Morokuma, V. G. Zakrzewski, G. A. Voth, 
 P. Salvador, J. J. Dannenberg, S. Dapprich, A. D. Daniels, 
 O. Farkas, J. B. Foresman, J. V. Ortiz, J. Cioslowski, 
 and D. J. Fox, Gaussian, Inc., Wallingford CT, 2010.
 
 ******************************************
 Gaussian 09:  EM64L-G09RevC.01 23-Sep-2011
                15-Apr-2019 
 ******************************************
 %nprocshared=4
 Will use up to    4 processors via shared memory.
 -----------------------------------------------------------
 # B3LYP/6-31+G** test scrf=(pcm,solvent=water,smd,dovacuum)
 -----------------------------------------------------------
 1/38=1/1;
 2/12=2,17=6,18=5,40=1/2;
 3/5=1,6=6,7=111,11=2,16=1,25=1,30=1,70=32101,72=1,74=-5/1,2,3;
 4//1;
 5/5=2,38=5,53=1/2;
 6/7=2,8=2,9=2,10=2,28=1/1;
 99/5=1,9=1/99;
 -------
 comment
 -------
 Charge =  0 Multiplicity = 1
 Symbolic Z-Matrix:
 6                    -1.9163   -0.24505   1.00666 
 6                    -1.19179  -1.12494  -0.02314 
 6                    -0.91475   0.97833  -0.66986 
 6                     0.9987   -0.03431   0.57731 
 6                     0.6145    0.99903  -0.48268 
 6                     0.27727  -1.37749   0.34436 
 8                    -1.26589  -0.28814  -1.19303 
 8                    -1.59854   1.09543   0.57919 
 8                     0.88926  -2.09115  -0.71997 
 8                     2.39916  -0.30573   0.56923 
 8                     1.12298   2.25158  -0.03164 
 1                    -1.57047  -0.39525   2.0342 
 1                    -3.00072  -0.39246   0.9659 
 1                    -1.70343  -2.06219  -0.24769 
 1                    -1.26391   1.763    -1.34748 
 1                     0.70267   0.37102   1.5538 
 1                     1.06534   0.71641  -1.443 
 1                     0.315    -1.96809   1.27388 
 1                     1.84205  -1.9027   -0.63537 
 1                     2.84828   0.55349   0.49489 
 1                     1.18372   2.8474   -0.79524 
 
                          Input orientation:                          
 ---------------------------------------------------------------------
 Center     Atomic      Atomic             Coordinates (Angstroms)
 Number     Number       Type             X           Y           Z
 ---------------------------------------------------------------------
      1          6           0       -1.916304   -0.245052    1.006662
      2          6           0       -1.191789   -1.124941   -0.023135
      3          6           0       -0.914753    0.978326   -0.669864
      4          6           0        0.998700   -0.034311    0.577306
      5          6           0        0.614497    0.999028   -0.482680
      6          6           0        0.277272   -1.377486    0.344363
      7          8           0       -1.265890   -0.288140   -1.193029
      8          8           0       -1.598542    1.095433    0.579190
      9          8           0        0.889259   -2.091149   -0.719971
     10          8           0        2.399156   -0.305729    0.569227
     11          8           0        1.122983    2.251582   -0.031642
     12          1           0       -1.570472   -0.395248    2.034200
     13          1           0       -3.000717   -0.392461    0.965898
     14          1           0       -1.703428   -2.062193   -0.247694
     15          1           0       -1.263910    1.763004   -1.347476
     16          1           0        0.702673    0.371019    1.553797
     17          1           0        1.065338    0.716411   -1.442999
     18          1           0        0.315004   -1.968090    1.273883
     19          1           0        1.842047   -1.902700   -0.635369
     20          1           0        2.848278    0.553485    0.494890
     21          1           0        1.183721    2.847403   -0.795241
 ---------------------------------------------------------------------
                    Distance matrix (angstroms):
                    1          2          3          4          5
     1  C    0.000000
     2  C    1.536102   0.000000
     3  C    2.304452   2.217823   0.000000
     4  C    2.953981   2.519572   2.498433   0.000000
     5  C    3.189174   2.825791   1.540802   1.529370   0.000000
     6  C    2.555939   1.535244   2.828326   1.542349   2.538807
     7  O    2.294240   1.440270   1.414544   2.885634   2.386892
     8  O    1.442430   2.336301   1.428782   2.832312   2.456502
     9  O    3.776310   2.397895   3.560709   2.434232   3.111430
    10  O    4.337998   3.730534   3.763793   1.426538   2.448246
    11  O    4.067987   4.093794   2.486137   2.368875   1.425091
    12  H    1.094529   2.215509   3.103004   2.975477   3.612863
    13  H    1.095145   2.187906   2.984296   4.034180   4.135746
    14  H    2.218271   1.091166   3.169383   3.477704   3.846956
    15  H    3.162258   3.177941   1.093978   3.471964   2.204528
    16  H    2.745531   2.883331   2.815947   1.097934   2.132934
    17  H    3.976863   3.240558   2.141751   2.156306   1.097881
    18  H    2.831784   2.159533   3.737890   2.166140   3.461069
    19  H    4.423716   3.191222   3.987662   2.381741   3.154397
    20  H    4.858067   4.405406   3.962013   1.942482   2.478695
    21  H    4.735007   4.692410   2.812963   3.197248   1.959133
                    6          7          8          9         10
     6  C    0.000000
     7  O    2.435487   0.000000
     8  O    3.112740   2.272816   0.000000
     9  O    1.420088   2.849437   4.246325   0.000000
    10  O    2.387806   4.066745   4.236147   2.670121   0.000000
    11  O    3.745229   3.675013   3.019353   4.403151   2.920531
    12  H    2.689702   3.243339   2.083260   4.063473   4.232270
    13  H    3.478763   2.771547   2.080737   4.567232   5.415118
    14  H    2.177735   2.057270   3.265783   2.635509   4.536929
    15  H    3.885903   2.056952   2.066318   4.459192   4.622928
    16  H    2.168171   3.443078   2.601966   3.356651   2.074951
    17  H    2.863584   2.550732   3.365882   2.904508   2.621621
    18  H    1.101928   3.377442   3.678237   2.078549   2.757476
    19  H    1.919439   3.546415   4.722458   0.974923   2.076473
    20  H    3.218910   4.525901   4.480516   3.508238   0.972361
    21  H    4.468784   3.998807   3.563628   4.947895   3.644351
                   11         12         13         14         15
    11  O    0.000000
    12  H    4.304429   0.000000
    13  H    4.999095   1.785183   0.000000
    14  H    5.161776   2.829032   2.437985   0.000000
    15  H    2.769004   4.023402   3.607524   4.004351   0.000000
    16  H    2.495355   2.446455   3.826699   3.867197   3.771267
    17  H    2.086145   4.502687   4.854399   4.100666   2.555363
    18  H    4.490307   2.570396   3.683947   2.529450   4.825511
    19  H    4.259061   4.587406   5.319515   3.570171   4.857103
    20  H    2.477380   4.774403   5.943686   5.302002   4.665548
    21  H    0.970451   5.109413   5.577441   5.721850   2.733456
                   16         17         18         19         20
    16  H    0.000000
    17  H    3.038356   0.000000
    18  H    2.387482   3.892428   0.000000
    19  H    3.355655   2.848734   2.445686   0.000000
    20  H    2.399625   2.638339   3.658230   2.884932   0.000000
    21  H    3.447008   2.230411   5.312713   4.798170   3.114040
                   21
    21  H    0.000000
 Stoichiometry    C6H10O5
 Framework group  C1[X(C6H10O5)]
 Deg. of freedom    57
 Full point group                 C1      NOp   1
 Largest Abelian subgroup         C1      NOp   1
 Largest concise Abelian subgroup C1      NOp   1
                         Standard orientation:                         
 ---------------------------------------------------------------------
 Center     Atomic      Atomic             Coordinates (Angstroms)
 Number     Number       Type             X           Y           Z
 ---------------------------------------------------------------------
      1          6           0       -1.916304   -0.245051    1.006662
      2          6           0       -1.191789   -1.124941   -0.023135
      3          6           0       -0.914753    0.978326   -0.669864
      4          6           0        0.998700   -0.034311    0.577306
      5          6           0        0.614497    0.999028   -0.482680
      6          6           0        0.277272   -1.377486    0.344363
      7          8           0       -1.265890   -0.288140   -1.193029
      8          8           0       -1.598542    1.095433    0.579190
      9          8           0        0.889259   -2.091149   -0.719971
     10          8           0        2.399156   -0.305729    0.569227
     11          8           0        1.122983    2.251582   -0.031642
     12          1           0       -1.570472   -0.395248    2.034200
     13          1           0       -3.000717   -0.392460    0.965898
     14          1           0       -1.703428   -2.062193   -0.247694
     15          1           0       -1.263910    1.763004   -1.347476
     16          1           0        0.702673    0.371019    1.553797
     17          1           0        1.065338    0.716411   -1.442999
     18          1           0        0.315004   -1.968090    1.273883
     19          1           0        1.842047   -1.902700   -0.635369
     20          1           0        2.848278    0.553484    0.494890
     21          1           0        1.183722    2.847403   -0.795241
 ---------------------------------------------------------------------
 Rotational constants (GHZ):      1.4824059      1.2865648      0.8854122
 Standard basis: 6-31+G(d,p) (6D, 7F)
 There are   259 symmetry adapted basis functions of A   symmetry.
 Integral buffers will be    131072 words long.
 Raffenetti 2 integral format.
 Two-electron integral symmetry is turned on.
   259 basis functions,   422 primitive gaussians,   259 cartesian basis functions
    43 alpha electrons       43 beta electrons
       nuclear repulsion energy       727.5129941860 Hartrees.
 NAtoms=   21 NActive=   21 NUniq=   21 SFac= 1.00D+00 NAtFMM=   60 NAOKFM=F Big=F
 ------------------------------------------------------------------------------
 Polarizable Continuum Model (PCM)
 =================================
 Model                : C-PCM.
 Atomic radii         : SMD-Coulomb.
 Polarization charges : Total charges.
 Charge compensation  : None.
 Solution method      : Matrix inversion.
 Cavity type          : VdW (van der Waals Surface) (Alpha=1.000).
 Cavity algorithm     : GePol (No added spheres)
                        Default sphere list used, NSphG=   21.
                        Lebedev-Laikov grids with approx.  5.0 points / Ang**2.
                        Smoothing algorithm: Karplus/York (Gamma=1.0000).
                        Polarization charges: spherical gaussians, with
                                              point-specific exponents (IZeta= 3).
                        Self-potential: point-specific (ISelfS= 7).
                        Self-field    : sphere-specific E.n sum rule (ISelfD= 2).
 Solvent              : Water, Eps=  78.355300 Eps(inf)=   1.777849
 ------------------------------------------------------------------------------
 ------------------------------------------------------------------------------
 Atomic radii for non-electrostatic terms: SMD-CDS.
 ------------------------------------------------------------------------------
 Nuclear repulsion after PCM non-electrostatic terms =      727.5180565048 Hartrees.
 One-electron integrals computed using PRISM.
 NBasis=   259 RedAO= T  NBF=   259
 NBsUse=   259 1.00D-06 NBFU=   259
 Harris functional with IExCor=  402 diagonalized for initial guess.
 ExpMin= 4.38D-02 ExpMax= 5.48D+03 ExpMxC= 8.25D+02 IAcc=2 IRadAn=         4 AccDes= 0.00D+00
 HarFok:  IExCor=  402 AccDes= 0.00D+00 IRadAn=         4 IDoV= 1
 ScaDFX=  1.000000  1.000000  1.000000  1.000000
 FoFCou: FMM=F IPFlag=           0 FMFlag=      100000 FMFlg1=           0
         NFxFlg=           0 DoJE=T BraDBF=F KetDBF=T FulRan=T
         Omega=  0.000000  0.000000  1.000000  0.000000  0.000000 ICntrl=     500 IOpCl=  0
         NMat0=    1 NMatS0=    1 NMatT0=    0 NMatD0=    1 NMtDS0=    0 NMtDT0=    0
         I1Cent=           4 NGrid=           0.
 Petite list used in FoFCou.
 Initial guess orbital symmetries:
       Occupied  (A) (A) (A) (A) (A) (A) (A) (A) (A) (A) (A) (A)
                 (A) (A) (A) (A) (A) (A) (A) (A) (A) (A) (A) (A)
                 (A) (A) (A) (A) (A) (A) (A) (A) (A) (A) (A) (A)
                 (A) (A) (A) (A) (A) (A) (A)
       Virtual   (A) (A) (A) (A) (A) (A) (A) (A) (A) (A) (A) (A)
                 (A) (A) (A) (A) (A) (A) (A) (A) (A) (A) (A) (A)
                 (A) (A) (A) (A) (A) (A) (A) (A) (A) (A) (A) (A)
                 (A) (A) (A) (A) (A) (A) (A) (A) (A) (A) (A) (A)
                 (A) (A) (A) (A) (A) (A) (A) (A) (A) (A) (A) (A)
                 (A) (A) (A) (A) (A) (A) (A) (A) (A) (A) (A) (A)
                 (A) (A) (A) (A) (A) (A) (A) (A) (A) (A) (A) (A)
                 (A) (A) (A) (A) (A) (A) (A) (A) (A) (A) (A) (A)
                 (A) (A) (A) (A) (A) (A) (A) (A) (A) (A) (A) (A)
                 (A) (A) (A) (A) (A) (A) (A) (A) (A) (A) (A) (A)
                 (A) (A) (A) (A) (A) (A) (A) (A) (A) (A) (A) (A)
                 (A) (A) (A) (A) (A) (A) (A) (A) (A) (A) (A) (A)
                 (A) (A) (A) (A) (A) (A) (A) (A) (A) (A) (A) (A)
                 (A) (A) (A) (A) (A) (A) (A) (A) (A) (A) (A) (A)
                 (A) (A) (A) (A) (A) (A) (A) (A) (A) (A) (A) (A)
                 (A) (A) (A) (A) (A) (A) (A) (A) (A) (A) (A) (A)
                 (A) (A) (A) (A) (A) (A) (A) (A) (A) (A) (A) (A)
                 (A) (A) (A) (A) (A) (A) (A) (A) (A) (A) (A) (A)
 The electronic state of the initial guess is 1-A.
 Requested convergence on RMS density matrix=1.00D-08 within 128 cycles.
 Requested convergence on MAX density matrix=1.00D-06.
 Requested convergence on             energy=1.00D-06.
 No special actions if energy rises.
 Error on total polarization charges =  0.05747
 SCF Done:  E(RB3LYP) =  -610.810157452     A.U. after   12 cycles
             Convg  =    0.4730D-08             -V/T =  2.0090
 SMD-CDS (non-electrostatic) energy       (kcal/mol) =       3.18
 (included in total energy above)

 **********************************************************************

            Population analysis using the SCF density.

 **********************************************************************

 Orbital symmetries:
       Occupied  (A) (A) (A) (A) (A) (A) (A) (A) (A) (A) (A) (A)
                 (A) (A) (A) (A) (A) (A) (A) (A) (A) (A) (A) (A)
                 (A) (A) (A) (A) (A) (A) (A) (A) (A) (A) (A) (A)
                 (A) (A) (A) (A) (A) (A) (A)
       Virtual   (A) (A) (A) (A) (A) (A) (A) (A) (A) (A) (A) (A)
                 (A) (A) (A) (A) (A) (A) (A) (A) (A) (A) (A) (A)
                 (A) (A) (A) (A) (A) (A) (A) (A) (A) (A) (A) (A)
                 (A) (A) (A) (A) (A) (A) (A) (A) (A) (A) (A) (A)
                 (A) (A) (A) (A) (A) (A) (A) (A) (A) (A) (A) (A)
                 (A) (A) (A) (A) (A) (A) (A) (A) (A) (A) (A) (A)
                 (A) (A) (A) (A) (A) (A) (A) (A) (A) (A) (A) (A)
                 (A) (A) (A) (A) (A) (A) (A) (A) (A) (A) (A) (A)
                 (A) (A) (A) (A) (A) (A) (A) (A) (A) (A) (A) (A)
                 (A) (A) (A) (A) (A) (A) (A) (A) (A) (A) (A) (A)
                 (A) (A) (A) (A) (A) (A) (A) (A) (A) (A) (A) (A)
                 (A) (A) (A) (A) (A) (A) (A) (A) (A) (A) (A) (A)
                 (A) (A) (A) (A) (A) (A) (A) (A) (A) (A) (A) (A)
                 (A) (A) (A) (A) (A) (A) (A) (A) (A) (A) (A) (A)
                 (A) (A) (A) (A) (A) (A) (A) (A) (A) (A) (A) (A)
                 (A) (A) (A) (A) (A) (A) (A) (A) (A) (A) (A) (A)
                 (A) (A) (A) (A) (A) (A) (A) (A) (A) (A) (A) (A)
                 (A) (A) (A) (A) (A) (A) (A) (A) (A) (A) (A) (A)
 The electronic state is 1-A.
 Alpha  occ. eigenvalues --  -19.18384 -19.17552 -19.17403 -19.17376 -19.16650
 Alpha  occ. eigenvalues --  -10.29355 -10.25204 -10.24838 -10.24724 -10.24515
 Alpha  occ. eigenvalues --  -10.24116  -1.11213  -1.05662  -1.03958  -1.02302
 Alpha  occ. eigenvalues --   -1.01077  -0.79689  -0.78366  -0.67855  -0.65650
 Alpha  occ. eigenvalues --   -0.62810  -0.58447  -0.54911  -0.54571  -0.51046
 Alpha  occ. eigenvalues --   -0.50634  -0.48913  -0.47152  -0.46300  -0.44541
 Alpha  occ. eigenvalues --   -0.43513  -0.41358  -0.40207  -0.38335  -0.37764
 Alpha  occ. eigenvalues --   -0.36194  -0.35858  -0.34141  -0.31892  -0.30126
 Alpha  occ. eigenvalues --   -0.29431  -0.28299  -0.26209
 Alpha virt. eigenvalues --    0.00646   0.01414   0.01960   0.02864   0.04032
 Alpha virt. eigenvalues --    0.04910   0.05639   0.05748   0.06013   0.07953
 Alpha virt. eigenvalues --    0.08377   0.09928   0.10123   0.10426   0.11825
 Alpha virt. eigenvalues --    0.12515   0.13030   0.13656   0.13926   0.14527
 Alpha virt. eigenvalues --    0.15184   0.15858   0.16459   0.16781   0.17055
 Alpha virt. eigenvalues --    0.17926   0.18982   0.19770   0.19865   0.21088
 Alpha virt. eigenvalues --    0.21732   0.21998   0.22763   0.23117   0.23583
 Alpha virt. eigenvalues --    0.24100   0.24917   0.25745   0.26354   0.27268
 Alpha virt. eigenvalues --    0.27404   0.27882   0.28262   0.29361   0.29914
 Alpha virt. eigenvalues --    0.30391   0.30612   0.31328   0.32928   0.33093
 Alpha virt. eigenvalues --    0.34479   0.35062   0.35237   0.36013   0.36236
 Alpha virt. eigenvalues --    0.36892   0.37447   0.38000   0.39099   0.39562
 Alpha virt. eigenvalues --    0.40379   0.41616   0.42979   0.44261   0.46142
 Alpha virt. eigenvalues --    0.47267   0.64126   0.66286   0.66754   0.67889
 Alpha virt. eigenvalues --    0.69275   0.70637   0.74621   0.75926   0.76375
 Alpha virt. eigenvalues --    0.78327   0.80272   0.82409   0.83138   0.84875
 Alpha virt. eigenvalues --    0.87163   0.88916   0.94215   0.95345   0.98004
 Alpha virt. eigenvalues --    1.01208   1.02739   1.03655   1.04999   1.06062
 Alpha virt. eigenvalues --    1.07746   1.08839   1.10872   1.12280   1.14174
 Alpha virt. eigenvalues --    1.18762   1.19920   1.20663   1.24826   1.25195
 Alpha virt. eigenvalues --    1.26550   1.28729   1.29525   1.30976   1.32814
 Alpha virt. eigenvalues --    1.33460   1.34102   1.35254   1.38168   1.40102
 Alpha virt. eigenvalues --    1.42454   1.43865   1.46609   1.47511   1.50619
 Alpha virt. eigenvalues --    1.53845   1.55363   1.56902   1.58073   1.59313
 Alpha virt. eigenvalues --    1.60819   1.63948   1.65553   1.66084   1.66888
 Alpha virt. eigenvalues --    1.69422   1.72916   1.73791   1.75140   1.78097
 Alpha virt. eigenvalues --    1.82185   1.82864   1.84167   1.84921   1.87425
 Alpha virt. eigenvalues --    1.89334   1.92449   1.93781   1.96779   1.98534
 Alpha virt. eigenvalues --    2.00537   2.02117   2.04469   2.06373   2.07099
 Alpha virt. eigenvalues --    2.09003   2.12281   2.14866   2.15796   2.16593
 Alpha virt. eigenvalues --    2.19327   2.20076   2.21761   2.24104   2.29113
 Alpha virt. eigenvalues --    2.29742   2.33927   2.38380   2.40431   2.40916
 Alpha virt. eigenvalues --    2.44129   2.46188   2.48178   2.49367   2.51457
 Alpha virt. eigenvalues --    2.53556   2.56951   2.59773   2.61620   2.63653
 Alpha virt. eigenvalues --    2.64214   2.66579   2.66953   2.68697   2.70136
 Alpha virt. eigenvalues --    2.72648   2.76816   2.77593   2.78082   2.80546
 Alpha virt. eigenvalues --    2.82612   2.84782   2.86368   2.88202   2.89837
 Alpha virt. eigenvalues --    2.93940   2.95816   2.96587   2.99630   3.00385
 Alpha virt. eigenvalues --    3.03282   3.08741   3.10612   3.12334   3.22904
 Alpha virt. eigenvalues --    3.33974   3.39123   3.39554   3.45796   3.47660
 Alpha virt. eigenvalues --    3.51150   3.51701   3.52856   3.56930   3.57687
 Alpha virt. eigenvalues --    4.31183   4.33383   4.37718   4.44625   4.49314
 Alpha virt. eigenvalues --    4.57836   4.61167   4.72765   4.80590   4.87881
 Alpha virt. eigenvalues --    4.99584
          Condensed to atoms (all electrons):
              1          2          3          4          5          6
     1  C    5.494429  -0.149268  -0.453341  -0.168408   0.272060   0.062500
     2  C   -0.149268   6.752660  -0.349795   0.193506  -0.043171  -0.576190
     3  C   -0.453341  -0.349795   6.551417   0.213133  -1.020300   0.289315
     4  C   -0.168408   0.193506   0.213133   6.200574  -0.327521  -0.118341
     5  C    0.272060  -0.043171  -1.020300  -0.327521   6.880141  -0.366527
     6  C    0.062500  -0.576190   0.289315  -0.118341  -0.366527   6.184802
     7  O   -0.037784   0.091647   0.281585  -0.058208  -0.062889  -0.081337
     8  O    0.167718  -0.133422   0.340735  -0.007668  -0.204443  -0.006574
     9  O    0.042061  -0.178278  -0.068449  -0.145501   0.120076   0.245883
    10  O   -0.006015   0.033830   0.003618   0.130298   0.006285  -0.132685
    11  O    0.019379  -0.025549  -0.122767  -0.128913   0.238309   0.065487
    12  H    0.461958  -0.160315   0.008705  -0.040772   0.020684   0.068356
    13  H    0.405309  -0.007045  -0.011007   0.006796  -0.001021  -0.015313
    14  H   -0.006204   0.315197   0.027221   0.011670  -0.013289   0.006803
    15  H    0.015769   0.024289   0.365687   0.022724  -0.029723  -0.023586
    16  H    0.001003  -0.029457   0.008977   0.309361  -0.014435   0.005618
    17  H    0.010202  -0.026416  -0.056920  -0.148947   0.472670   0.033377
    18  H    0.025405  -0.063760  -0.028009  -0.024222   0.054513   0.332971
    19  H   -0.005329   0.020484  -0.000899  -0.039548  -0.015158   0.028632
    20  H    0.000755  -0.010138   0.018603   0.043838  -0.081724   0.033969
    21  H   -0.001747   0.006529  -0.039326   0.018926   0.032512  -0.011413
              7          8          9         10         11         12
     1  C   -0.037784   0.167718   0.042061  -0.006015   0.019379   0.461958
     2  C    0.091647  -0.133422  -0.178278   0.033830  -0.025549  -0.160315
     3  C    0.281585   0.340735  -0.068449   0.003618  -0.122767   0.008705
     4  C   -0.058208  -0.007668  -0.145501   0.130298  -0.128913  -0.040772
     5  C   -0.062889  -0.204443   0.120076   0.006285   0.238309   0.020684
     6  C   -0.081337  -0.006574   0.245883  -0.132685   0.065487   0.068356
     7  O    8.365322  -0.054516   0.022832  -0.002252   0.006628   0.010021
     8  O   -0.054516   8.455227   0.003221  -0.000304   0.015498  -0.043596
     9  O    0.022832   0.003221   8.390705  -0.008464  -0.003220   0.000152
    10  O   -0.002252  -0.000304  -0.008464   8.408302  -0.016470  -0.000190
    11  O    0.006628   0.015498  -0.003220  -0.016470   8.364229  -0.000083
    12  H    0.010021  -0.043596   0.000152  -0.000190  -0.000083   0.533271
    13  H   -0.000743  -0.051572  -0.000207   0.000023   0.000085  -0.038970
    14  H   -0.037165   0.007165   0.001606  -0.000663   0.000066   0.002168
    15  H   -0.043465  -0.047496   0.000549  -0.000629  -0.003411  -0.000267
    16  H   -0.000225   0.006298   0.005908  -0.034140   0.000731   0.001276
    17  H    0.003985   0.010183   0.005384   0.008496  -0.044628  -0.000015
    18  H    0.007655   0.000829  -0.040464   0.001313  -0.000663   0.000271
    19  H   -0.002471   0.000133   0.240414   0.023871   0.000067  -0.000005
    20  H    0.000047  -0.000021  -0.001108   0.235231   0.016015   0.000001
    21  H    0.000392  -0.000354   0.000261   0.000086   0.246274  -0.000002
             13         14         15         16         17         18
     1  C    0.405309  -0.006204   0.015769   0.001003   0.010202   0.025405
     2  C   -0.007045   0.315197   0.024289  -0.029457  -0.026416  -0.063760
     3  C   -0.011007   0.027221   0.365687   0.008977  -0.056920  -0.028009
     4  C    0.006796   0.011670   0.022724   0.309361  -0.148947  -0.024222
     5  C   -0.001021  -0.013289  -0.029723  -0.014435   0.472670   0.054513
     6  C   -0.015313   0.006803  -0.023586   0.005618   0.033377   0.332971
     7  O   -0.000743  -0.037165  -0.043465  -0.000225   0.003985   0.007655
     8  O   -0.051572   0.007165  -0.047496   0.006298   0.010183   0.000829
     9  O   -0.000207   0.001606   0.000549   0.005908   0.005384  -0.040464
    10  O    0.000023  -0.000663  -0.000629  -0.034140   0.008496   0.001313
    11  O    0.000085   0.000066  -0.003411   0.000731  -0.044628  -0.000663
    12  H   -0.038970   0.002168  -0.000267   0.001276  -0.000015   0.000271
    13  H    0.549304  -0.003677   0.000333   0.000051   0.000022   0.000004
    14  H   -0.003677   0.515666  -0.000054  -0.000142  -0.000029  -0.002578
    15  H    0.000333  -0.000054   0.548536  -0.000250  -0.002346   0.000022
    16  H    0.000051  -0.000142  -0.000250   0.562090   0.004820  -0.004223
    17  H    0.000022  -0.000029  -0.002346   0.004820   0.558281  -0.000116
    18  H    0.000004  -0.002578   0.000022  -0.004223  -0.000116   0.579841
    19  H    0.000004  -0.000032  -0.000004   0.000606   0.000421  -0.003009
    20  H    0.000000   0.000005  -0.000002  -0.004316  -0.001719  -0.000175
    21  H    0.000000   0.000000   0.002070   0.000174  -0.006522   0.000005
             19         20         21
     1  C   -0.005329   0.000755  -0.001747
     2  C    0.020484  -0.010138   0.006529
     3  C   -0.000899   0.018603  -0.039326
     4  C   -0.039548   0.043838   0.018926
     5  C   -0.015158  -0.081724   0.032512
     6  C    0.028632   0.033969  -0.011413
     7  O   -0.002471   0.000047   0.000392
     8  O    0.000133  -0.000021  -0.000354
     9  O    0.240414  -0.001108   0.000261
    10  O    0.023871   0.235231   0.000086
    11  O    0.000067   0.016015   0.246274
    12  H   -0.000005   0.000001  -0.000002
    13  H    0.000004   0.000000   0.000000
    14  H   -0.000032   0.000005   0.000000
    15  H   -0.000004  -0.000002   0.002070
    16  H    0.000606  -0.004316   0.000174
    17  H    0.000421  -0.001719  -0.006522
    18  H   -0.003009  -0.000175   0.000005
    19  H    0.343992  -0.000874  -0.000001
    20  H   -0.000874   0.341409  -0.000898
    21  H   -0.000001  -0.000898   0.334210
 Mulliken atomic charges:
              1
     1  C   -0.150451
     2  C    0.314662
     3  C    0.041817
     4  C    0.057224
     5  C    0.082949
     6  C   -0.025747
     7  O   -0.409059
     8  O   -0.457042
     9  O   -0.633360
    10  O   -0.649543
    11  O   -0.627064
    12  H    0.177353
    13  H    0.167624
    14  H    0.176267
    15  H    0.171254
    16  H    0.180275
    17  H    0.179818
    18  H    0.164390
    19  H    0.408706
    20  H    0.411102
    21  H    0.418826
 Sum of Mulliken atomic charges =   0.00000
 Mulliken charges with hydrogens summed into heavy atoms:
              1
     1  C    0.194526
     2  C    0.490929
     3  C    0.213071
     4  C    0.237498
     5  C    0.262767
     6  C    0.138643
     7  O   -0.409059
     8  O   -0.457042
     9  O   -0.224654
    10  O   -0.238441
    11  O   -0.208238
 Sum of Mulliken charges with hydrogens summed into heavy atoms =   0.00000
 Electronic spatial extent (au):  <R**2>=           1431.5140
 Charge=              0.0000 electrons
 Dipole moment (field-independent basis, Debye):
    X=              0.5938    Y=              1.4535    Z=              0.4765  Tot=              1.6409
 Quadrupole moment (field-independent basis, Debye-Ang):
   XX=            -62.2759   YY=            -66.3935   ZZ=            -65.0882
   XY=              8.7032   XZ=             -5.7654   YZ=            -13.3018
 Traceless Quadrupole moment (field-independent basis, Debye-Ang):
   XX=              2.3100   YY=             -1.8077   ZZ=             -0.5023
   XY=              8.7032   XZ=             -5.7654   YZ=            -13.3018
 Octapole moment (field-independent basis, Debye-Ang**2):
  XXX=             12.8229  YYY=             24.1607  ZZZ=              5.1177  XYY=              4.2829
  XXY=             -0.6194  XXZ=             -4.1534  XZZ=              3.8730  YZZ=             10.5618
  YYZ=            -14.2466  XYZ=              2.8698
 Hexadecapole moment (field-independent basis, Debye-Ang**3):
 XXXX=           -755.4317 YYYY=           -668.9245 ZZZZ=           -275.2470 XXXY=             43.1356
 XXXZ=            -25.6395 YYYX=             34.9574 YYYZ=            -72.7137 ZZZX=            -13.4319
 ZZZY=            -16.3796 XXYY=           -231.5188 XXZZ=           -184.1022 YYZZ=           -152.3907
 XXYZ=             -3.3789 YYXZ=             -6.3132 ZZXY=              6.4078
 N-N= 7.275180565048D+02 E-N=-2.885280337411D+03  KE= 6.053579399958D+02

 Test job not archived.
 1\1\GINC-COMPUTE-10-3\SP\RB3LYP\6-31+G(d,p)\C6H10O5\ASAROTTI.IQUIR\15-
 Apr-2019\0\\# B3LYP/6-31+G** test scrf=(pcm,solvent=water,smd,dovacuum
 )\\comment\\0,1\C,0,-1.916304,-0.245052,1.006662\C,0,-1.191789,-1.1249
 41,-0.023135\C,0,-0.914753,0.978326,-0.669864\C,0,0.9987,-0.034311,0.5
 77306\C,0,0.614497,0.999028,-0.48268\C,0,0.277272,-1.377486,0.344363\O
 ,0,-1.26589,-0.28814,-1.193029\O,0,-1.598542,1.095433,0.57919\O,0,0.88
 9259,-2.091149,-0.719971\O,0,2.399156,-0.305729,0.569227\O,0,1.122983,
 2.251582,-0.031642\H,0,-1.570472,-0.395248,2.0342\H,0,-3.000717,-0.392
 461,0.965898\H,0,-1.703428,-2.062193,-0.247694\H,0,-1.26391,1.763004,-
 1.347476\H,0,0.702673,0.371019,1.553797\H,0,1.065338,0.716411,-1.44299
 9\H,0,0.315004,-1.96809,1.273883\H,0,1.842047,-1.9027,-0.635369\H,0,2.
 848278,0.553485,0.49489\H,0,1.183721,2.847403,-0.795241\\Version=EM64L
 -G09RevC.01\State=1-A\HF=-610.8101575\RMSD=4.730e-09\Dipole=0.2336342,
 0.5718661,0.1874815\Quadrupole=1.7174215,-1.3439502,-0.3734714,6.47060
 82,-4.2864473,-9.8895485\PG=C01 [X(C6H10O5)]\\@


 IT IS BETTER TO THINK YOU ARE HALF DRY THAN TO KNOW YOU
 ARE ALL WET.  -- SNOOPY
 Job cpu time:  0 days  0 hours  8 minutes 11.0 seconds.
 File lengths (MBytes):  RWF=     56 Int=      0 D2E=      0 Chk=      4 Scr=      1
 Normal termination of Gaussian 09 at Mon Apr 15 18:58:26 2019.
