 Entering Gaussian System, Link 0=g09
 Input=/home/mmarcarino.iquir/NMR/08_SRR_Levo06_OPTB_nmr.gjc
 Output=/home/mmarcarino.iquir/NMR/08_SRR_Levo06_OPTB_nmr.log
 Initial command:
 /share/apps/Gaussian09/EM64T.SSE4.2-enabled/g09/l1.exe /tmp/Gau-35957.inp -scrdir=/tmp/
 Entering Link 1 = /share/apps/Gaussian09/EM64T.SSE4.2-enabled/g09/l1.exe PID=     35958.
  
 Copyright (c) 1988,1990,1992,1993,1995,1998,2003,2009,2011,
            Gaussian, Inc.  All Rights Reserved.
  
 This is part of the Gaussian(R) 09 program.  It is based on
 the Gaussian(R) 03 system (copyright 2003, Gaussian, Inc.),
 the Gaussian(R) 98 system (copyright 1998, Gaussian, Inc.),
 the Gaussian(R) 94 system (copyright 1995, Gaussian, Inc.),
 the Gaussian 92(TM) system (copyright 1992, Gaussian, Inc.),
 the Gaussian 90(TM) system (copyright 1990, Gaussian, Inc.),
 the Gaussian 88(TM) system (copyright 1988, Gaussian, Inc.),
 the Gaussian 86(TM) system (copyright 1986, Carnegie Mellon
 University), and the Gaussian 82(TM) system (copyright 1983,
 Carnegie Mellon University). Gaussian is a federally registered
 trademark of Gaussian, Inc.
  
 This software contains proprietary and confidential information,
 including trade secrets, belonging to Gaussian, Inc.
  
 This software is provided under written license and may be
 used, copied, transmitted, or stored only in accord with that
 written license.
  
 The following legend is applicable only to US Government
 contracts under FAR:
  
                    RESTRICTED RIGHTS LEGEND
  
 Use, reproduction and disclosure by the US Government is
 subject to restrictions as set forth in subparagraphs (a)
 and (c) of the Commercial Computer Software - Restricted
 Rights clause in FAR 52.227-19.
  
 Gaussian, Inc.
 340 Quinnipiac St., Bldg. 40, Wallingford CT 06492
  
  
 ---------------------------------------------------------------
 Warning -- This program may not be used in any manner that
 competes with the business of Gaussian, Inc. or will provide
 assistance to any competitor of Gaussian, Inc.  The licensee
 of this program is prohibited from giving any competitor of
 Gaussian, Inc. access to this program.  By using this program,
 the user acknowledges that Gaussian, Inc. is engaged in the
 business of creating and licensing software in the field of
 computational chemistry and represents and warrants to the
 licensee that it is not a competitor of Gaussian, Inc. and that
 it will not use this program in any manner prohibited above.
 ---------------------------------------------------------------
  

 Cite this work as:
 Gaussian 09, Revision C.01,
 M. J. Frisch, G. W. Trucks, H. B. Schlegel, G. E. Scuseria, 
 M. A. Robb, J. R. Cheeseman, G. Scalmani, V. Barone, B. Mennucci, 
 G. A. Petersson, H. Nakatsuji, M. Caricato, X. Li, H. P. Hratchian, 
 A. F. Izmaylov, J. Bloino, G. Zheng, J. L. Sonnenberg, M. Hada, 
 M. Ehara, K. Toyota, R. Fukuda, J. Hasegawa, M. Ishida, T. Nakajima, 
 Y. Honda, O. Kitao, H. Nakai, T. Vreven, J. A. Montgomery, Jr., 
 J. E. Peralta, F. Ogliaro, M. Bearpark, J. J. Heyd, E. Brothers, 
 K. N. Kudin, V. N. Staroverov, T. Keith, R. Kobayashi, J. Normand, 
 K. Raghavachari, A. Rendell, J. C. Burant, S. S. Iyengar, J. Tomasi, 
 M. Cossi, N. Rega, J. M. Millam, M. Klene, J. E. Knox, J. B. Cross, 
 V. Bakken, C. Adamo, J. Jaramillo, R. Gomperts, R. E. Stratmann, 
 O. Yazyev, A. J. Austin, R. Cammi, C. Pomelli, J. W. Ochterski, 
 R. L. Martin, K. Morokuma, V. G. Zakrzewski, G. A. Voth, 
 P. Salvador, J. J. Dannenberg, S. Dapprich, A. D. Daniels, 
 O. Farkas, J. B. Foresman, J. V. Ortiz, J. Cioslowski, 
 and D. J. Fox, Gaussian, Inc., Wallingford CT, 2010.
 
 ******************************************
 Gaussian 09:  EM64L-G09RevC.01 23-Sep-2011
                12-Apr-2019 
 ******************************************
 %nprocshared=4
 Will use up to    4 processors via shared memory.
 ------------------------------------------------
 # mpw1pw91/6-31+g** nmr scrf=(pcm,solvent=water)
 ------------------------------------------------
 1/38=1/1;
 2/12=2,17=6,18=5,40=1/2;
 3/5=1,6=6,7=111,11=2,16=1,25=1,30=1,70=2201,72=1,74=-7/1,2,8,3;
 4//1;
 5/5=2,38=5,53=1/2;
 8/6=1,10=90,11=11/1;
 10/13=100,45=16/2;
 6/7=2,8=2,9=2,10=2,28=1/1;
 99/9=1/99;
 -------
 comment
 -------
 Charge =  0 Multiplicity = 1
 Symbolic Z-Matrix:
 6                     1.88228  -0.39142  -1.01424 
 6                     1.07804  -1.21978   0.00025 
 6                     1.00002   0.8903    0.68773 
 6                    -1.00714   0.08616  -0.57375 
 6                    -0.51383   1.06535   0.50427 
 6                    -0.41385  -1.32263  -0.36484 
 8                     1.22566  -0.41452   1.18502 
 8                     1.69489   0.96387  -0.55987 
 8                    -1.16772  -1.91407   0.6975 
 8                    -2.42715   0.04529  -0.62422 
 8                    -0.7992    2.41027   0.14737 
 1                     1.52325  -0.48779  -2.04402 
 1                     2.94754  -0.64355  -0.97941 
 1                     1.50633  -2.20265   0.20623 
 1                     1.42219   1.6247    1.37898 
 1                    -0.67569   0.47707  -1.54042 
 1                    -0.9845    0.81185   1.46641 
 1                    -0.53152  -1.90695  -1.28674 
 1                    -1.14248  -2.87803   0.59544 
 1                    -2.68047  -0.60561   0.05745 
 1                    -1.74948   2.43644  -0.05679 
 
                          Input orientation:                          
 ---------------------------------------------------------------------
 Center     Atomic      Atomic             Coordinates (Angstroms)
 Number     Number       Type             X           Y           Z
 ---------------------------------------------------------------------
      1          6           0        1.882281   -0.391416   -1.014242
      2          6           0        1.078039   -1.219783    0.000250
      3          6           0        1.000015    0.890297    0.687729
      4          6           0       -1.007138    0.086162   -0.573745
      5          6           0       -0.513834    1.065353    0.504271
      6          6           0       -0.413849   -1.322630   -0.364840
      7          8           0        1.225655   -0.414521    1.185015
      8          8           0        1.694885    0.963865   -0.559868
      9          8           0       -1.167721   -1.914072    0.697498
     10          8           0       -2.427147    0.045286   -0.624218
     11          8           0       -0.799203    2.410271    0.147365
     12          1           0        1.523249   -0.487792   -2.044023
     13          1           0        2.947538   -0.643549   -0.979406
     14          1           0        1.506333   -2.202648    0.206229
     15          1           0        1.422194    1.624697    1.378982
     16          1           0       -0.675688    0.477066   -1.540417
     17          1           0       -0.984499    0.811846    1.466410
     18          1           0       -0.531521   -1.906952   -1.286742
     19          1           0       -1.142480   -2.878027    0.595443
     20          1           0       -2.680472   -0.605614    0.057445
     21          1           0       -1.749483    2.436437   -0.056786
 ---------------------------------------------------------------------
                    Distance matrix (angstroms):
                    1          2          3          4          5
     1  C    0.000000
     2  C    1.536942   0.000000
     3  C    2.306054   2.220620   0.000000
     4  C    2.961564   2.526445   2.503320   0.000000
     5  C    3.188954   2.830184   1.534940   1.537622   0.000000
     6  C    2.561464   1.539350   2.829127   1.542831   2.543190
     7  O    2.295305   1.440106   1.414481   2.886050   2.383120
     8  O    1.441652   2.337210   1.429949   2.841036   2.453799
     9  O    3.814584   2.451863   3.544525   2.375454   3.056449
    10  O    4.349023   3.778451   3.765725   1.421494   2.444339
    11  O    4.048350   4.089373   2.416506   2.442277   1.420430
    12  H    1.094825   2.216546   3.104090   2.982281   3.613277
    13  H    1.095243   2.187875   2.987452   4.041844   4.135546
    14  H    2.216179   1.091736   3.170885   3.487771   3.853535
    15  H    3.162896   3.179687   1.093348   3.475901   2.196859
    16  H    2.752149   2.885916   2.818399   1.094130   2.133782
    17  H    3.977424   3.245182   2.133259   2.165494   1.100683
    18  H    2.863136   2.172380   3.750832   2.169581   3.470250
    19  H    4.233615   2.834560   4.335789   3.189316   3.994215
    20  H    4.691813   3.808790   4.022560   1.917551   2.772382
    21  H    4.701402   4.622346   3.241079   2.518356   1.929115
                    6          7          8          9         10
     6  C    0.000000
     7  O    2.432013   0.000000
     8  O    3.116545   2.272607   0.000000
     9  O    1.430625   2.866108   4.249471   0.000000
    10  O    2.447824   4.102159   4.223633   2.678091   0.000000
    11  O    3.787532   3.627150   2.968627   4.374745   2.972994
    12  H    2.696101   3.243550   2.083143   4.097747   4.231506
    13  H    3.483930   2.775257   2.080608   4.621860   5.430275
    14  H    2.188070   2.057717   3.263321   2.734079   4.605987
    15  H    3.885705   2.057829   2.066446   4.437901   4.617876
    16  H    2.165513   3.440641   2.611143   3.311782   2.023231
    17  H    2.869687   2.543214   3.362739   2.838208   2.653219
    18  H    1.097808   3.380030   3.704972   2.083749   2.800637
    19  H    1.967818   3.467639   4.913809   0.969671   3.418143
    20  H    2.414543   4.070105   4.689146   2.100035   0.975966
    21  H    4.001175   4.303659   3.779581   4.453574   2.549277
                   11         12         13         14         15
    11  O    0.000000
    12  H    4.312161   0.000000
    13  H    4.963214   1.785012   0.000000
    14  H    5.157323   2.829249   2.431788   0.000000
    15  H    2.658686   4.023653   3.610209   4.003873   0.000000
    16  H    2.569269   2.453547   3.833833   3.872061   3.773732
    17  H    2.080667   4.505663   4.853978   4.108464   2.541760
    18  H    4.557053   2.609515   3.714094   2.543472   4.836903
    19  H    5.318337   4.448159   4.919481   2.761129   5.240802
    20  H    3.555674   4.701204   5.722849   4.483524   4.853104
    21  H    0.972314   4.817780   5.692060   5.673678   3.574897
                   16         17         18         19         20
    16  H    0.000000
    17  H    3.041127   0.000000
    18  H    2.401807   3.895754   0.000000
    19  H    4.004553   3.794562   2.204286   0.000000
    20  H    2.782897   2.621202   2.849265   2.796198   0.000000
    21  H    2.682039   2.354702   4.675602   5.388635   3.183373
                   21
    21  H    0.000000
 Stoichiometry    C6H10O5
 Framework group  C1[X(C6H10O5)]
 Deg. of freedom    57
 Full point group                 C1      NOp   1
 Largest Abelian subgroup         C1      NOp   1
 Largest concise Abelian subgroup C1      NOp   1
                         Standard orientation:                         
 ---------------------------------------------------------------------
 Center     Atomic      Atomic             Coordinates (Angstroms)
 Number     Number       Type             X           Y           Z
 ---------------------------------------------------------------------
      1          6           0       -1.882281   -0.391417    1.014242
      2          6           0       -1.078038   -1.219784   -0.000250
      3          6           0       -1.000015    0.890297   -0.687729
      4          6           0        1.007138    0.086163    0.573745
      5          6           0        0.513834    1.065353   -0.504271
      6          6           0        0.413850   -1.322630    0.364840
      7          8           0       -1.225655   -0.414522   -1.185015
      8          8           0       -1.694885    0.963864    0.559868
      9          8           0        1.167722   -1.914071   -0.697498
     10          8           0        2.427147    0.045287    0.624218
     11          8           0        0.799202    2.410271   -0.147365
     12          1           0       -1.523249   -0.487793    2.044023
     13          1           0       -2.947538   -0.643550    0.979406
     14          1           0       -1.506332   -2.202649   -0.206229
     15          1           0       -1.422195    1.624696   -1.378982
     16          1           0        0.675688    0.477066    1.540417
     17          1           0        0.984499    0.811847   -1.466410
     18          1           0        0.531522   -1.906952    1.286742
     19          1           0        1.142482   -2.878026   -0.595443
     20          1           0        2.680472   -0.605613   -0.057445
     21          1           0        1.749482    2.436438    0.056786
 ---------------------------------------------------------------------
 Rotational constants (GHZ):      1.4761339      1.2856728      0.8842708
 Standard basis: 6-31+G(d,p) (6D, 7F)
 There are   259 symmetry adapted basis functions of A   symmetry.
 Integral buffers will be    131072 words long.
 Raffenetti 2 integral format.
 Two-electron integral symmetry is turned on.
   259 basis functions,   422 primitive gaussians,   259 cartesian basis functions
    43 alpha electrons       43 beta electrons
       nuclear repulsion energy       726.8694123986 Hartrees.
 NAtoms=   21 NActive=   21 NUniq=   21 SFac= 1.00D+00 NAtFMM=   60 NAOKFM=F Big=F
 ------------------------------------------------------------------------------
 Polarizable Continuum Model (PCM)
 =================================
 Model                : PCM.
 Atomic radii         : UFF (Universal Force Field).
 Polarization charges : Total charges.
 Charge compensation  : None.
 Solution method      : Matrix inversion.
 Cavity type          : Scaled VdW (van der Waals Surface) (Alpha=1.100).
 Cavity algorithm     : GePol (No added spheres)
                        Default sphere list used, NSphG=   21.
                        Lebedev-Laikov grids with approx.  5.0 points / Ang**2.
                        Smoothing algorithm: Karplus/York (Gamma=1.0000).
                        Polarization charges: spherical gaussians, with
                                              point-specific exponents (IZeta= 3).
                        Self-potential: point-specific (ISelfS= 7).
                        Self-field    : sphere-specific E.n sum rule (ISelfD= 2).
 Solvent              : Water, Eps=  78.355300 Eps(inf)=   1.777849
 ------------------------------------------------------------------------------
 One-electron integrals computed using PRISM.
 NBasis=   259 RedAO= T  NBF=   259
 NBsUse=   259 1.00D-06 NBFU=   259
 Harris functional with IExCor=  908 diagonalized for initial guess.
 ExpMin= 4.38D-02 ExpMax= 5.48D+03 ExpMxC= 8.25D+02 IAcc=2 IRadAn=         4 AccDes= 0.00D+00
 HarFok:  IExCor=  908 AccDes= 0.00D+00 IRadAn=         4 IDoV= 1
 ScaDFX=  1.000000  1.000000  1.000000  1.000000
 FoFCou: FMM=F IPFlag=           0 FMFlag=      100000 FMFlg1=           0
         NFxFlg=           0 DoJE=T BraDBF=F KetDBF=T FulRan=T
         Omega=  0.000000  0.000000  1.000000  0.000000  0.000000 ICntrl=     500 IOpCl=  0
         NMat0=    1 NMatS0=    1 NMatT0=    0 NMatD0=    1 NMtDS0=    0 NMtDT0=    0
         I1Cent=           4 NGrid=           0.
 Petite list used in FoFCou.
 Initial guess orbital symmetries:
       Occupied  (A) (A) (A) (A) (A) (A) (A) (A) (A) (A) (A) (A)
                 (A) (A) (A) (A) (A) (A) (A) (A) (A) (A) (A) (A)
                 (A) (A) (A) (A) (A) (A) (A) (A) (A) (A) (A) (A)
                 (A) (A) (A) (A) (A) (A) (A)
       Virtual   (A) (A) (A) (A) (A) (A) (A) (A) (A) (A) (A) (A)
                 (A) (A) (A) (A) (A) (A) (A) (A) (A) (A) (A) (A)
                 (A) (A) (A) (A) (A) (A) (A) (A) (A) (A) (A) (A)
                 (A) (A) (A) (A) (A) (A) (A) (A) (A) (A) (A) (A)
                 (A) (A) (A) (A) (A) (A) (A) (A) (A) (A) (A) (A)
                 (A) (A) (A) (A) (A) (A) (A) (A) (A) (A) (A) (A)
                 (A) (A) (A) (A) (A) (A) (A) (A) (A) (A) (A) (A)
                 (A) (A) (A) (A) (A) (A) (A) (A) (A) (A) (A) (A)
                 (A) (A) (A) (A) (A) (A) (A) (A) (A) (A) (A) (A)
                 (A) (A) (A) (A) (A) (A) (A) (A) (A) (A) (A) (A)
                 (A) (A) (A) (A) (A) (A) (A) (A) (A) (A) (A) (A)
                 (A) (A) (A) (A) (A) (A) (A) (A) (A) (A) (A) (A)
                 (A) (A) (A) (A) (A) (A) (A) (A) (A) (A) (A) (A)
                 (A) (A) (A) (A) (A) (A) (A) (A) (A) (A) (A) (A)
                 (A) (A) (A) (A) (A) (A) (A) (A) (A) (A) (A) (A)
                 (A) (A) (A) (A) (A) (A) (A) (A) (A) (A) (A) (A)
                 (A) (A) (A) (A) (A) (A) (A) (A) (A) (A) (A) (A)
                 (A) (A) (A) (A) (A) (A) (A) (A) (A) (A) (A) (A)
 The electronic state of the initial guess is 1-A.
 Requested convergence on RMS density matrix=1.00D-08 within 128 cycles.
 Requested convergence on MAX density matrix=1.00D-06.
 Requested convergence on             energy=1.00D-06.
 No special actions if energy rises.
 Error on total polarization charges =  0.01154
 SCF Done:  E(RmPW1PW91) =  -610.651707383     A.U. after   12 cycles
             Convg  =    0.5805D-08             -V/T =  2.0090
 Range of M.O.s used for correlation:     1   259
 NBasis=   259 NAE=    43 NBE=    43 NFC=     0 NFV=     0
 NROrb=    259 NOA=    43 NOB=    43 NVA=   216 NVB=   216

 **** Warning!!: The largest alpha MO coefficient is  0.51325025D+02

 NEqPCM:  Using equilibrium solvation (IEInf=0, Eps=  78.3553, EpsInf=   1.7778)
          Differentiating once with respect to magnetic field using GIAOs.
          Electric field/nuclear overlap derivatives assumed to be zero.
 FoFCou: FMM=F IPFlag=           0 FMFlag=    10101102 FMFlg1=           0
         NFxFlg=    40000000 DoJE=F BraDBF=F KetDBF=T FulRan=T
         Omega=  0.000000  0.000000  1.000000  0.000000  0.000000 ICntrl=    6100 IOpCl=  0
         NMat0=    1 NMatS0=    1 NMatT0=    0 NMatD0=    1 NMtDS0=    0 NMtDT0=    0
         I1Cent=           7 NGrid=        1527.
 Symmetry not used in FoFCou.
          There are     3 degrees of freedom in the 1st order CPHF.  IDoFFX=0.
      3 vectors produced by pass  0 Test12= 3.10D-13 3.33D-08 XBig12= 2.04D+01 7.93D-01.
 AX will form     3 AO Fock derivatives at one time.
      3 vectors produced by pass  1 Test12= 3.10D-13 3.33D-08 XBig12= 4.62D-02 2.65D-02.
      3 vectors produced by pass  2 Test12= 3.10D-13 3.33D-08 XBig12= 9.95D-05 1.34D-03.
      3 vectors produced by pass  3 Test12= 3.10D-13 3.33D-08 XBig12= 4.33D-07 9.71D-05.
      3 vectors produced by pass  4 Test12= 3.10D-13 3.33D-08 XBig12= 1.42D-09 5.03D-06.
      3 vectors produced by pass  5 Test12= 3.10D-13 3.33D-08 XBig12= 4.85D-12 3.13D-07.
 Inverted reduced A of dimension    18 with in-core refinement.
 Calculating GIAO nuclear magnetic shielding tensors.
 SCF GIAO Magnetic shielding tensor (ppm):
      1  C    Isotropic =   129.6302   Anisotropy =    62.2168
   XX=   108.2210   YX=     5.9219   ZX=   -12.9356
   XY=     3.3177   YY=   165.4808   ZY=   -12.4591
   XZ=    -6.7339   YZ=   -20.0114   ZZ=   115.1890
   Eigenvalues:   100.6802   117.1024   171.1081
      2  C    Isotropic =   115.9321   Anisotropy =    48.8830
   XX=   104.4825   YX=   -13.1253   ZX=    -6.1599
   XY=    -7.7083   YY=   112.0715   ZY=   -17.6232
   XZ=     2.8650   YZ=   -31.5346   ZZ=   131.2423
   Eigenvalues:    89.1960   110.0796   148.5208
      3  C    Isotropic =    93.4212   Anisotropy =    28.4131
   XX=    83.5951   YX=    14.1232   ZX=   -17.8118
   XY=     3.1570   YY=    99.5854   ZY=    13.9552
   XZ=   -12.5261   YZ=    12.3784   ZZ=    97.0832
   Eigenvalues:    67.1278   100.7726   112.3633
      4  C    Isotropic =   123.8965   Anisotropy =    35.5449
   XX=   145.6987   YX=   -11.6701   ZX=     5.5677
   XY=    -2.3158   YY=   117.3109   ZY=    -7.9877
   XZ=    -1.9058   YZ=    -4.2599   ZZ=   108.6800
   Eigenvalues:   105.4350   118.6614   147.5931
      5  C    Isotropic =   119.2165   Anisotropy =    24.3805
   XX=   117.5476   YX=    11.2477   ZX=     3.4289
   XY=    -0.1643   YY=   129.5935   ZY=     0.5052
   XZ=     4.7399   YZ=    16.9733   ZZ=   110.5084
   Eigenvalues:   106.7560   115.4234   135.4702
      6  C    Isotropic =   123.2214   Anisotropy =    39.7753
   XX=   131.3928   YX=   -12.8758   ZX=   -18.2601
   XY=    -3.2464   YY=   108.6717   ZY=    13.5975
   XZ=    -4.6535   YZ=    20.4796   ZZ=   129.5998
   Eigenvalues:    99.0649   120.8612   149.7383
      7  O    Isotropic =   238.4894   Anisotropy =    56.9054
   XX=   199.0240   YX=    33.8914   ZX=   -31.7741
   XY=    15.1140   YY=   260.4796   ZY=    21.2794
   XZ=   -45.5289   YZ=     9.3585   ZZ=   255.9647
   Eigenvalues:   170.2988   268.7431   276.4264
      8  O    Isotropic =   272.9490   Anisotropy =   103.6235
   XX=   214.1757   YX=     3.2802   ZX=   -63.2108
   XY=     4.8284   YY=   305.4044   ZY=    12.3218
   XZ=   -56.5213   YZ=    37.8532   ZZ=   299.2669
   Eigenvalues:   181.3935   295.4222   342.0313
      9  O    Isotropic =   305.4798   Anisotropy =    52.4930
   XX=   277.9488   YX=     8.2908   ZX=     6.8886
   XY=    -9.7029   YY=   338.6460   ZY=    12.8616
   XZ=   -17.6004   YZ=     4.1243   ZZ=   299.8446
   Eigenvalues:   276.6833   299.2809   340.4751
     10  O    Isotropic =   310.2354   Anisotropy =    26.6072
   XX=   313.0111   YX=   -11.4206   ZX=     1.8710
   XY=   -26.5572   YY=   303.0509   ZY=     4.2056
   XZ=     4.8338   YZ=    10.7414   ZZ=   314.6442
   Eigenvalues:   286.1654   316.5672   327.9735
     11  O    Isotropic =   304.0614   Anisotropy =    34.8345
   XX=   310.5380   YX=     7.0018   ZX=    14.3569
   XY=     5.9534   YY=   306.1903   ZY=     2.8479
   XZ=    15.8662   YZ=    22.2401   ZZ=   295.4559
   Eigenvalues:   283.3144   301.5854   327.2844
     12  H    Isotropic =    27.7610   Anisotropy =     7.2672
   XX=    25.8100   YX=     0.4000   ZX=    -0.8857
   XY=    -0.1804   YY=    26.0966   ZY=    -3.4743
   XZ=    -1.9140   YZ=    -1.4298   ZZ=    31.3763
   Eigenvalues:    24.8871    25.7901    32.6058
     13  H    Isotropic =    27.6853   Anisotropy =    11.5471
   XX=    32.5608   YX=     2.8988   ZX=    -3.4298
   XY=     4.4373   YY=    27.3264   ZY=    -1.3772
   XZ=    -2.8025   YZ=    -1.2704   ZZ=    23.1689
   Eigenvalues:    22.2175    25.4551    35.3834
     14  H    Isotropic =    27.0135   Anisotropy =     8.0742
   XX=    26.4741   YX=     3.4037   ZX=     0.7533
   XY=     2.4338   YY=    30.9250   ZY=     0.2563
   XZ=    -0.2561   YZ=    -1.5708   ZZ=    23.6413
   Eigenvalues:    23.4482    25.1959    32.3963
     15  H    Isotropic =    26.0890   Anisotropy =     7.5304
   XX=    24.4545   YX=    -1.5660   ZX=     1.3893
   XY=    -1.3702   YY=    26.7649   ZY=    -3.3783
   XZ=     1.6884   YZ=    -3.6625   ZZ=    27.0478
   Eigenvalues:    23.3829    23.7749    31.1093
     16  H    Isotropic =    27.9407   Anisotropy =     4.2354
   XX=    30.6159   YX=    -1.0256   ZX=    -1.0145
   XY=     0.4294   YY=    24.4577   ZY=     0.7108
   XZ=     0.2020   YZ=     2.1995   ZZ=    28.7485
   Eigenvalues:    24.0065    29.0512    30.7643
     17  H    Isotropic =    27.9571   Anisotropy =     3.3433
   XX=    25.3907   YX=     1.3011   ZX=    -1.3213
   XY=     1.8379   YY=    29.6715   ZY=     1.0951
   XZ=    -1.9617   YZ=     0.0297   ZZ=    28.8092
   Eigenvalues:    24.2208    29.4645    30.1860
     18  H    Isotropic =    27.6053   Anisotropy =     6.4996
   XX=    24.9919   YX=    -1.3137   ZX=    -1.7505
   XY=    -1.8065   YY=    27.0338   ZY=    -1.7157
   XZ=    -0.6047   YZ=    -2.9700   ZZ=    30.7902
   Eigenvalues:    23.4694    27.4081    31.9383
     19  H    Isotropic =    29.6163   Anisotropy =    21.6969
   XX=    22.6114   YX=    -2.7192   ZX=    -2.7935
   XY=    -2.4212   YY=    43.7252   ZY=     0.6962
   XZ=    -1.3985   YZ=     0.8255   ZZ=    22.5121
   Eigenvalues:    20.3940    24.3739    44.0809
     20  H    Isotropic =    28.7196   Anisotropy =    16.4309
   XX=    29.8944   YX=    -2.6829   ZX=    -3.3702
   XY=    -1.2763   YY=    29.4161   ZY=     9.7177
   XZ=    -4.3351   YZ=     9.8368   ZZ=    26.8485
   Eigenvalues:    18.0419    28.4435    39.6736
     21  H    Isotropic =    29.2473   Anisotropy =    17.9745
   XX=    39.3148   YX=     3.5753   ZX=     3.9975
   XY=     3.5301   YY=    28.6576   ZY=     0.9151
   XZ=     4.7515   YZ=    -0.5724   ZZ=    19.7695
   Eigenvalues:    18.7995    27.7121    41.2303
 End of Minotr Frequency-dependent properties file   721 does not exist.
 End of Minotr Frequency-dependent properties file   722 does not exist.

 **********************************************************************

            Population analysis using the SCF density.

 **********************************************************************

 Orbital symmetries:
       Occupied  (A) (A) (A) (A) (A) (A) (A) (A) (A) (A) (A) (A)
                 (A) (A) (A) (A) (A) (A) (A) (A) (A) (A) (A) (A)
                 (A) (A) (A) (A) (A) (A) (A) (A) (A) (A) (A) (A)
                 (A) (A) (A) (A) (A) (A) (A)
       Virtual   (A) (A) (A) (A) (A) (A) (A) (A) (A) (A) (A) (A)
                 (A) (A) (A) (A) (A) (A) (A) (A) (A) (A) (A) (A)
                 (A) (A) (A) (A) (A) (A) (A) (A) (A) (A) (A) (A)
                 (A) (A) (A) (A) (A) (A) (A) (A) (A) (A) (A) (A)
                 (A) (A) (A) (A) (A) (A) (A) (A) (A) (A) (A) (A)
                 (A) (A) (A) (A) (A) (A) (A) (A) (A) (A) (A) (A)
                 (A) (A) (A) (A) (A) (A) (A) (A) (A) (A) (A) (A)
                 (A) (A) (A) (A) (A) (A) (A) (A) (A) (A) (A) (A)
                 (A) (A) (A) (A) (A) (A) (A) (A) (A) (A) (A) (A)
                 (A) (A) (A) (A) (A) (A) (A) (A) (A) (A) (A) (A)
                 (A) (A) (A) (A) (A) (A) (A) (A) (A) (A) (A) (A)
                 (A) (A) (A) (A) (A) (A) (A) (A) (A) (A) (A) (A)
                 (A) (A) (A) (A) (A) (A) (A) (A) (A) (A) (A) (A)
                 (A) (A) (A) (A) (A) (A) (A) (A) (A) (A) (A) (A)
                 (A) (A) (A) (A) (A) (A) (A) (A) (A) (A) (A) (A)
                 (A) (A) (A) (A) (A) (A) (A) (A) (A) (A) (A) (A)
                 (A) (A) (A) (A) (A) (A) (A) (A) (A) (A) (A) (A)
                 (A) (A) (A) (A) (A) (A) (A) (A) (A) (A) (A) (A)
 The electronic state is 1-A.
 Alpha  occ. eigenvalues --  -19.27729 -19.27213 -19.26872 -19.26223 -19.26188
 Alpha  occ. eigenvalues --  -10.35912 -10.32071 -10.32010 -10.31238 -10.30918
 Alpha  occ. eigenvalues --  -10.30784  -1.14341  -1.08821  -1.07126  -1.05339
 Alpha  occ. eigenvalues --   -1.03955  -0.82718  -0.81033  -0.70496  -0.68144
 Alpha  occ. eigenvalues --   -0.64824  -0.61771  -0.57244  -0.55899  -0.54250
 Alpha  occ. eigenvalues --   -0.52103  -0.51173  -0.48609  -0.47224  -0.46502
 Alpha  occ. eigenvalues --   -0.44964  -0.44115  -0.42497  -0.39444  -0.39269
 Alpha  occ. eigenvalues --   -0.38014  -0.36940  -0.35824  -0.33320  -0.32968
 Alpha  occ. eigenvalues --   -0.29790  -0.29102  -0.28093
 Alpha virt. eigenvalues --    0.00432   0.01361   0.01896   0.02503   0.04061
 Alpha virt. eigenvalues --    0.04954   0.05219   0.05500   0.05915   0.07740
 Alpha virt. eigenvalues --    0.08557   0.09237   0.10162   0.10420   0.11497
 Alpha virt. eigenvalues --    0.12056   0.12877   0.13735   0.14029   0.14325
 Alpha virt. eigenvalues --    0.14968   0.15492   0.16434   0.16654   0.17289
 Alpha virt. eigenvalues --    0.17993   0.19047   0.19459   0.20120   0.21327
 Alpha virt. eigenvalues --    0.21939   0.22289   0.22660   0.23461   0.23943
 Alpha virt. eigenvalues --    0.24907   0.25227   0.25647   0.26591   0.27408
 Alpha virt. eigenvalues --    0.27813   0.28055   0.29556   0.30437   0.30591
 Alpha virt. eigenvalues --    0.31430   0.31711   0.32611   0.33325   0.33899
 Alpha virt. eigenvalues --    0.34638   0.35137   0.36121   0.36833   0.36900
 Alpha virt. eigenvalues --    0.37773   0.38238   0.38646   0.39132   0.39900
 Alpha virt. eigenvalues --    0.40970   0.42397   0.43887   0.44697   0.48168
 Alpha virt. eigenvalues --    0.48625   0.64564   0.66012   0.67449   0.68794
 Alpha virt. eigenvalues --    0.71612   0.71853   0.75106   0.76620   0.77430
 Alpha virt. eigenvalues --    0.80299   0.81613   0.83459   0.84643   0.85808
 Alpha virt. eigenvalues --    0.88762   0.89994   0.95300   0.97058   0.98876
 Alpha virt. eigenvalues --    1.02809   1.03742   1.04590   1.06401   1.07137
 Alpha virt. eigenvalues --    1.08270   1.10126   1.10869   1.13534   1.13837
 Alpha virt. eigenvalues --    1.18736   1.21861   1.22444   1.25765   1.27161
 Alpha virt. eigenvalues --    1.27790   1.29519   1.30741   1.32898   1.35117
 Alpha virt. eigenvalues --    1.35964   1.37021   1.37196   1.40456   1.41118
 Alpha virt. eigenvalues --    1.42869   1.44450   1.45592   1.49863   1.52363
 Alpha virt. eigenvalues --    1.54663   1.55510   1.57516   1.59545   1.60049
 Alpha virt. eigenvalues --    1.62180   1.64115   1.65076   1.67010   1.68016
 Alpha virt. eigenvalues --    1.70058   1.73408   1.74175   1.76400   1.79480
 Alpha virt. eigenvalues --    1.81051   1.83294   1.84892   1.86467   1.87919
 Alpha virt. eigenvalues --    1.90814   1.91761   1.94200   1.97952   2.00520
 Alpha virt. eigenvalues --    2.01777   2.03491   2.06286   2.07836   2.08215
 Alpha virt. eigenvalues --    2.09133   2.11859   2.12919   2.16592   2.17179
 Alpha virt. eigenvalues --    2.18914   2.20673   2.23481   2.28136   2.28797
 Alpha virt. eigenvalues --    2.33455   2.35966   2.38064   2.38837   2.42191
 Alpha virt. eigenvalues --    2.44138   2.45711   2.48002   2.50687   2.51992
 Alpha virt. eigenvalues --    2.54641   2.57539   2.60947   2.63162   2.63624
 Alpha virt. eigenvalues --    2.65229   2.66975   2.67746   2.69052   2.70759
 Alpha virt. eigenvalues --    2.72328   2.74469   2.76387   2.79996   2.80785
 Alpha virt. eigenvalues --    2.83152   2.86608   2.87722   2.89549   2.91330
 Alpha virt. eigenvalues --    2.94231   2.96381   2.97030   3.00186   3.03508
 Alpha virt. eigenvalues --    3.06780   3.08087   3.11334   3.13236   3.24596
 Alpha virt. eigenvalues --    3.35333   3.41123   3.42175   3.47481   3.49919
 Alpha virt. eigenvalues --    3.51555   3.52815   3.55786   3.56922   3.61075
 Alpha virt. eigenvalues --    4.31882   4.36697   4.40626   4.44122   4.51413
 Alpha virt. eigenvalues --    4.62627   4.63086   4.75833   4.82853   4.90838
 Alpha virt. eigenvalues --    5.00739
          Condensed to atoms (all electrons):
              1          2          3          4          5          6
     1  C    5.617225  -0.271202  -0.490363  -0.086445   0.221790   0.134909
     2  C   -0.271202   6.907931  -0.234030   0.113966  -0.040213  -0.816475
     3  C   -0.490363  -0.234030   6.799653  -0.098201  -0.946799   0.232148
     4  C   -0.086445   0.113966  -0.098201   6.725432  -0.256356  -0.544283
     5  C    0.221790  -0.040213  -0.946799  -0.256356   6.745299  -0.109289
     6  C    0.134909  -0.816475   0.232148  -0.544283  -0.109289   6.694418
     7  O   -0.065217   0.176595   0.311767  -0.063065  -0.068390  -0.090717
     8  O    0.196856  -0.119764   0.385967   0.052613  -0.277745  -0.033857
     9  O    0.024712  -0.088552  -0.045564  -0.211289   0.075367   0.251940
    10  O   -0.008878   0.018440   0.027470   0.293979  -0.121055  -0.082037
    11  O    0.021614  -0.019062  -0.172206  -0.170564   0.346308   0.048433
    12  H    0.457040  -0.166258   0.008208  -0.047331   0.025000   0.082045
    13  H    0.379746   0.011374  -0.002749   0.013997  -0.005069  -0.014238
    14  H    0.018077   0.280598   0.008653   0.013002  -0.001744   0.028722
    15  H    0.011171   0.036205   0.324599   0.028849   0.002071  -0.027619
    16  H    0.013726  -0.025583   0.003213   0.420325  -0.079909  -0.017119
    17  H    0.004825  -0.029488  -0.049744  -0.071845   0.368570   0.061419
    18  H    0.024805  -0.010049  -0.026262  -0.019550   0.040697   0.301850
    19  H    0.000810  -0.043704   0.004620   0.038529  -0.009407   0.025901
    20  H    0.002729   0.007671   0.004400   0.040127  -0.036746  -0.047060
    21  H   -0.002253  -0.003893   0.043453  -0.033835  -0.022034   0.020334
              7          8          9         10         11         12
     1  C   -0.065217   0.196856   0.024712  -0.008878   0.021614   0.457040
     2  C    0.176595  -0.119764  -0.088552   0.018440  -0.019062  -0.166258
     3  C    0.311767   0.385967  -0.045564   0.027470  -0.172206   0.008208
     4  C   -0.063065   0.052613  -0.211289   0.293979  -0.170564  -0.047331
     5  C   -0.068390  -0.277745   0.075367  -0.121055   0.346308   0.025000
     6  C   -0.090717  -0.033857   0.251940  -0.082037   0.048433   0.082045
     7  O    8.235187  -0.055528   0.010469  -0.002367   0.005879   0.011727
     8  O   -0.055528   8.331664   0.002498  -0.001413   0.020402  -0.046377
     9  O    0.010469   0.002498   8.359369  -0.005233  -0.000483  -0.000133
    10  O   -0.002367  -0.001413  -0.005233   8.245102  -0.017299  -0.000161
    11  O    0.005879   0.020402  -0.000483  -0.017299   8.272681   0.000061
    12  H    0.011727  -0.046377  -0.000133  -0.000161   0.000061   0.527610
    13  H   -0.003689  -0.051917  -0.000218   0.000009  -0.000018  -0.036596
    14  H   -0.036947   0.007057  -0.001789  -0.000562   0.000045   0.002070
    15  H   -0.044187  -0.046968   0.000378  -0.000631   0.001840  -0.000253
    16  H   -0.000748   0.006642   0.008799  -0.051613  -0.001170   0.000913
    17  H   -0.001455   0.010719   0.005515   0.000908  -0.039305  -0.000017
    18  H    0.009106  -0.000131  -0.038557   0.001846  -0.000461  -0.000014
    19  H   -0.001422  -0.000046   0.246301  -0.002027   0.000017  -0.000004
    20  H   -0.000321   0.000268   0.025499   0.253394   0.000550  -0.000007
    21  H   -0.000336  -0.001928  -0.000346   0.013996   0.237216   0.000003
             13         14         15         16         17         18
     1  C    0.379746   0.018077   0.011171   0.013726   0.004825   0.024805
     2  C    0.011374   0.280598   0.036205  -0.025583  -0.029488  -0.010049
     3  C   -0.002749   0.008653   0.324599   0.003213  -0.049744  -0.026262
     4  C    0.013997   0.013002   0.028849   0.420325  -0.071845  -0.019550
     5  C   -0.005069  -0.001744   0.002071  -0.079909   0.368570   0.040697
     6  C   -0.014238   0.028722  -0.027619  -0.017119   0.061419   0.301850
     7  O   -0.003689  -0.036947  -0.044187  -0.000748  -0.001455   0.009106
     8  O   -0.051917   0.007057  -0.046968   0.006642   0.010719  -0.000131
     9  O   -0.000218  -0.001789   0.000378   0.008799   0.005515  -0.038557
    10  O    0.000009  -0.000562  -0.000631  -0.051613   0.000908   0.001846
    11  O   -0.000018   0.000045   0.001840  -0.001170  -0.039305  -0.000461
    12  H   -0.036596   0.002070  -0.000253   0.000913  -0.000017  -0.000014
    13  H    0.531801  -0.003127   0.000370   0.000059   0.000021  -0.000012
    14  H   -0.003127   0.496220   0.000003  -0.000112  -0.000052  -0.001707
    15  H    0.000370   0.000003   0.532848  -0.000236  -0.002963   0.000024
    16  H    0.000059  -0.000112  -0.000236   0.516521   0.004362  -0.004939
    17  H    0.000021  -0.000052  -0.002963   0.004362   0.565968  -0.000228
    18  H   -0.000012  -0.001707   0.000024  -0.004939  -0.000228   0.540074
    19  H    0.000001   0.001679   0.000000  -0.000185   0.000018  -0.007959
    20  H    0.000000  -0.000017  -0.000003   0.006082   0.001779  -0.000496
    21  H    0.000000   0.000000  -0.000215  -0.000898  -0.004877  -0.000011
             19         20         21
     1  C    0.000810   0.002729  -0.002253
     2  C   -0.043704   0.007671  -0.003893
     3  C    0.004620   0.004400   0.043453
     4  C    0.038529   0.040127  -0.033835
     5  C   -0.009407  -0.036746  -0.022034
     6  C    0.025901  -0.047060   0.020334
     7  O   -0.001422  -0.000321  -0.000336
     8  O   -0.000046   0.000268  -0.001928
     9  O    0.246301   0.025499  -0.000346
    10  O   -0.002027   0.253394   0.013996
    11  O    0.000017   0.000550   0.237216
    12  H   -0.000004  -0.000007   0.000003
    13  H    0.000001   0.000000   0.000000
    14  H    0.001679  -0.000017   0.000000
    15  H    0.000000  -0.000003  -0.000215
    16  H   -0.000185   0.006082  -0.000898
    17  H    0.000018   0.001779  -0.004877
    18  H   -0.007959  -0.000496  -0.000011
    19  H    0.341514  -0.000917   0.000000
    20  H   -0.000917   0.353700  -0.000138
    21  H    0.000000  -0.000138   0.372021
 Mulliken atomic charges:
              1
     1  C   -0.205676
     2  C    0.315493
     3  C   -0.088233
     4  C   -0.138055
     5  C    0.149656
     6  C   -0.099424
     7  O   -0.326340
     8  O   -0.379012
     9  O   -0.618685
    10  O   -0.561868
    11  O   -0.534475
    12  H    0.182474
    13  H    0.180254
    14  H    0.189930
    15  H    0.184714
    16  H    0.201873
    17  H    0.175872
    18  H    0.191973
    19  H    0.406281
    20  H    0.389508
    21  H    0.383742
 Sum of Mulliken atomic charges =   0.00000
 Mulliken charges with hydrogens summed into heavy atoms:
              1
     1  C    0.157051
     2  C    0.505423
     3  C    0.096481
     4  C    0.063817
     5  C    0.325528
     6  C    0.092549
     7  O   -0.326340
     8  O   -0.379012
     9  O   -0.212404
    10  O   -0.172360
    11  O   -0.150733
 Sum of Mulliken charges with hydrogens summed into heavy atoms =   0.00000
 Electronic spatial extent (au):  <R**2>=           1432.5950
 Charge=              0.0000 electrons
 Dipole moment (field-independent basis, Debye):
    X=              0.0635    Y=             -5.7891    Z=              1.2490  Tot=              5.9226
 Quadrupole moment (field-independent basis, Debye-Ang):
   XX=            -65.9100   YY=            -59.2281   ZZ=            -66.3422
   XY=              2.9213   XZ=             -4.3975   YZ=             -5.4006
 Traceless Quadrupole moment (field-independent basis, Debye-Ang):
   XX=             -2.0833   YY=              4.5987   ZZ=             -2.5154
   XY=              2.9213   XZ=             -4.3975   YZ=             -5.4006
 Octapole moment (field-independent basis, Debye-Ang**2):
  XXX=              1.1336  YYY=            -57.1493  ZZZ=              6.0791  XYY=             15.0550
  XXY=             -6.4244  XXZ=             -8.2959  XZZ=             -1.3723  YZZ=              2.8407
  YYZ=             -2.5825  XYZ=              7.4285
 Hexadecapole moment (field-independent basis, Debye-Ang**3):
 XXXX=           -798.5774 YYYY=           -604.3820 ZZZZ=           -272.1914 XXXY=             14.9608
 XXXZ=            -40.0433 YYYX=            -12.1619 YYYZ=             20.7294 ZZZX=             -8.9570
 ZZZY=             -6.9097 XXYY=           -210.1950 XXZZ=           -190.9594 YYZZ=           -159.8377
 XXYZ=             -8.3564 YYXZ=             10.8446 ZZXY=             -2.3484
 N-N= 7.268694123986D+02 E-N=-2.883874462898D+03  KE= 6.052089593521D+02
 1\1\GINC-COMPUTE-8-11\SP\RmPW1PW91\6-31+G(d,p)\C6H10O5\MMARCARINO.IQUI
 R\12-Apr-2019\0\\# mpw1pw91/6-31+g** nmr scrf=(pcm,solvent=water)\\com
 ment\\0,1\C,0,1.882281,-0.391416,-1.014242\C,0,1.078039,-1.219783,0.00
 025\C,0,1.000015,0.890297,0.687729\C,0,-1.007138,0.086162,-0.573745\C,
 0,-0.513834,1.065353,0.504271\C,0,-0.413849,-1.32263,-0.36484\O,0,1.22
 5655,-0.414521,1.185015\O,0,1.694885,0.963865,-0.559868\O,0,-1.167721,
 -1.914072,0.697498\O,0,-2.427147,0.045286,-0.624218\O,0,-0.799203,2.41
 0271,0.147365\H,0,1.523249,-0.487792,-2.044023\H,0,2.947538,-0.643549,
 -0.979406\H,0,1.506333,-2.202648,0.206229\H,0,1.422194,1.624697,1.3789
 82\H,0,-0.675688,0.477066,-1.540417\H,0,-0.984499,0.811846,1.46641\H,0
 ,-0.531521,-1.906952,-1.286742\H,0,-1.14248,-2.878027,0.595443\H,0,-2.
 680472,-0.605614,0.057445\H,0,-1.749483,2.436437,-0.056786\\Version=EM
 64L-G09RevC.01\State=1-A\HF=-610.6517074\RMSD=5.805e-09\Dipole=-0.0249
 756,-2.2775881,-0.491413\Quadrupole=-1.5488441,3.4189918,-1.8701477,-2
 .1718975,-3.2694125,4.0151914\PG=C01 [X(C6H10O5)]\\@


 IF YOU GIVE A BOY AND A PIG EVERYTHING THEY WANT,
 YOU'LL GET A BAD BOY AND A GOOD PIG.
 Job cpu time:  0 days  0 hours 17 minutes 46.0 seconds.
 File lengths (MBytes):  RWF=     83 Int=      0 D2E=      0 Chk=      5 Scr=      1
 Normal termination of Gaussian 09 at Fri Apr 12 12:34:04 2019.
