 Entering Gaussian System, Link 0=g09
 Input=/home/mmarcarino.iquir/NMR/08_SRR_Levo10_OPTB_nmr.gjc
 Output=/home/mmarcarino.iquir/NMR/08_SRR_Levo10_OPTB_nmr.log
 Initial command:
 /share/apps/Gaussian09/EM64T.SSE4.2-enabled/g09/l1.exe /tmp/Gau-13566.inp -scrdir=/tmp/
 Entering Link 1 = /share/apps/Gaussian09/EM64T.SSE4.2-enabled/g09/l1.exe PID=     13567.
  
 Copyright (c) 1988,1990,1992,1993,1995,1998,2003,2009,2011,
            Gaussian, Inc.  All Rights Reserved.
  
 This is part of the Gaussian(R) 09 program.  It is based on
 the Gaussian(R) 03 system (copyright 2003, Gaussian, Inc.),
 the Gaussian(R) 98 system (copyright 1998, Gaussian, Inc.),
 the Gaussian(R) 94 system (copyright 1995, Gaussian, Inc.),
 the Gaussian 92(TM) system (copyright 1992, Gaussian, Inc.),
 the Gaussian 90(TM) system (copyright 1990, Gaussian, Inc.),
 the Gaussian 88(TM) system (copyright 1988, Gaussian, Inc.),
 the Gaussian 86(TM) system (copyright 1986, Carnegie Mellon
 University), and the Gaussian 82(TM) system (copyright 1983,
 Carnegie Mellon University). Gaussian is a federally registered
 trademark of Gaussian, Inc.
  
 This software contains proprietary and confidential information,
 including trade secrets, belonging to Gaussian, Inc.
  
 This software is provided under written license and may be
 used, copied, transmitted, or stored only in accord with that
 written license.
  
 The following legend is applicable only to US Government
 contracts under FAR:
  
                    RESTRICTED RIGHTS LEGEND
  
 Use, reproduction and disclosure by the US Government is
 subject to restrictions as set forth in subparagraphs (a)
 and (c) of the Commercial Computer Software - Restricted
 Rights clause in FAR 52.227-19.
  
 Gaussian, Inc.
 340 Quinnipiac St., Bldg. 40, Wallingford CT 06492
  
  
 ---------------------------------------------------------------
 Warning -- This program may not be used in any manner that
 competes with the business of Gaussian, Inc. or will provide
 assistance to any competitor of Gaussian, Inc.  The licensee
 of this program is prohibited from giving any competitor of
 Gaussian, Inc. access to this program.  By using this program,
 the user acknowledges that Gaussian, Inc. is engaged in the
 business of creating and licensing software in the field of
 computational chemistry and represents and warrants to the
 licensee that it is not a competitor of Gaussian, Inc. and that
 it will not use this program in any manner prohibited above.
 ---------------------------------------------------------------
  

 Cite this work as:
 Gaussian 09, Revision C.01,
 M. J. Frisch, G. W. Trucks, H. B. Schlegel, G. E. Scuseria, 
 M. A. Robb, J. R. Cheeseman, G. Scalmani, V. Barone, B. Mennucci, 
 G. A. Petersson, H. Nakatsuji, M. Caricato, X. Li, H. P. Hratchian, 
 A. F. Izmaylov, J. Bloino, G. Zheng, J. L. Sonnenberg, M. Hada, 
 M. Ehara, K. Toyota, R. Fukuda, J. Hasegawa, M. Ishida, T. Nakajima, 
 Y. Honda, O. Kitao, H. Nakai, T. Vreven, J. A. Montgomery, Jr., 
 J. E. Peralta, F. Ogliaro, M. Bearpark, J. J. Heyd, E. Brothers, 
 K. N. Kudin, V. N. Staroverov, T. Keith, R. Kobayashi, J. Normand, 
 K. Raghavachari, A. Rendell, J. C. Burant, S. S. Iyengar, J. Tomasi, 
 M. Cossi, N. Rega, J. M. Millam, M. Klene, J. E. Knox, J. B. Cross, 
 V. Bakken, C. Adamo, J. Jaramillo, R. Gomperts, R. E. Stratmann, 
 O. Yazyev, A. J. Austin, R. Cammi, C. Pomelli, J. W. Ochterski, 
 R. L. Martin, K. Morokuma, V. G. Zakrzewski, G. A. Voth, 
 P. Salvador, J. J. Dannenberg, S. Dapprich, A. D. Daniels, 
 O. Farkas, J. B. Foresman, J. V. Ortiz, J. Cioslowski, 
 and D. J. Fox, Gaussian, Inc., Wallingford CT, 2010.
 
 ******************************************
 Gaussian 09:  EM64L-G09RevC.01 23-Sep-2011
                12-Apr-2019 
 ******************************************
 %nprocshared=4
 Will use up to    4 processors via shared memory.
 ------------------------------------------------
 # mpw1pw91/6-31+g** nmr scrf=(pcm,solvent=water)
 ------------------------------------------------
 1/38=1/1;
 2/12=2,17=6,18=5,40=1/2;
 3/5=1,6=6,7=111,11=2,16=1,25=1,30=1,70=2201,72=1,74=-7/1,2,8,3;
 4//1;
 5/5=2,38=5,53=1/2;
 8/6=1,10=90,11=11/1;
 10/13=100,45=16/2;
 6/7=2,8=2,9=2,10=2,28=1/1;
 99/9=1/99;
 -------
 comment
 -------
 Charge =  0 Multiplicity = 1
 Symbolic Z-Matrix:
 6                     1.84852  -0.46969  -1.02604 
 6                     0.98515  -1.29203  -0.06178 
 6                     1.02087   0.79288   0.71528 
 6                    -1.0429    0.15317  -0.58519 
 6                    -0.46931   1.11003   0.47773 
 6                    -0.50769  -1.28938  -0.4006 
 8                     1.13958  -0.55005   1.16941 
 8                     1.76413   0.86672  -0.49738 
 8                    -1.24391  -1.93875   0.64289 
 8                    -2.46157   0.13572  -0.5871 
 8                    -0.6598    2.43909   0.0104 
 1                     1.48227  -0.48697  -2.05762 
 1                     2.89207  -0.80069  -1.00909 
 1                     1.35031  -2.30621   0.10838 
 1                     1.4751    1.45871   1.45499 
 1                    -0.73079   0.53504  -1.563 
 1                    -0.99913   0.95174   1.42867 
 1                    -0.70331  -1.86688  -1.30933 
 1                    -0.84824  -1.64302   1.48319 
 1                    -2.69868  -0.53566   0.08097 
 1                    -0.53495   3.04236   0.7606 
 
                          Input orientation:                          
 ---------------------------------------------------------------------
 Center     Atomic      Atomic             Coordinates (Angstroms)
 Number     Number       Type             X           Y           Z
 ---------------------------------------------------------------------
      1          6           0        1.848517   -0.469694   -1.026040
      2          6           0        0.985151   -1.292032   -0.061779
      3          6           0        1.020872    0.792879    0.715277
      4          6           0       -1.042898    0.153167   -0.585185
      5          6           0       -0.469310    1.110027    0.477727
      6          6           0       -0.507685   -1.289380   -0.400598
      7          8           0        1.139582   -0.550046    1.169413
      8          8           0        1.764131    0.866716   -0.497377
      9          8           0       -1.243910   -1.938749    0.642892
     10          8           0       -2.461574    0.135717   -0.587098
     11          8           0       -0.659795    2.439087    0.010399
     12          1           0        1.482267   -0.486968   -2.057622
     13          1           0        2.892066   -0.800694   -1.009093
     14          1           0        1.350311   -2.306214    0.108382
     15          1           0        1.475099    1.458708    1.454991
     16          1           0       -0.730788    0.535040   -1.563000
     17          1           0       -0.999131    0.951736    1.428669
     18          1           0       -0.703309   -1.866880   -1.309325
     19          1           0       -0.848236   -1.643022    1.483192
     20          1           0       -2.698684   -0.535656    0.080967
     21          1           0       -0.534951    3.042357    0.760602
 ---------------------------------------------------------------------
                    Distance matrix (angstroms):
                    1          2          3          4          5
     1  C    0.000000
     2  C    1.533441   0.000000
     3  C    2.304620   2.225297   0.000000
     4  C    2.990416   2.544708   2.521821   0.000000
     5  C    3.182633   2.859442   1.541965   1.540898   0.000000
     6  C    2.571916   1.530805   2.813799   1.549667   2.555402
     7  O    2.308476   1.445761   1.422596   2.887272   2.413049
     8  O    1.439652   2.335968   1.424225   2.897633   2.449140
     9  O    3.808748   2.425596   3.549122   2.434069   3.149971
    10  O    4.374480   3.767538   3.775642   1.418785   2.460132
    11  O    3.978296   4.078272   2.455910   2.393098   1.421647
    12  H    1.094805   2.208765   3.088667   2.992374   3.575897
    13  H    1.094917   2.185210   3.002381   4.071055   4.142504
    14  H    2.215384   1.091266   3.175095   3.501005   3.888205
    15  H    3.164442   3.179184   1.093996   3.493861   2.203940
    16  H    2.819686   2.921695   2.885366   1.095154   2.136246
    17  H    4.019348   3.345640   2.148156   2.166849   1.100026
    18  H    2.923046   2.176630   3.761134   2.172623   3.479984
    19  H    3.865931   2.423105   3.164944   2.746338   2.955304
    20  H    4.680476   3.763392   4.000306   1.913077   2.799250
    21  H    4.605161   4.666256   2.735469   3.227471   1.954028
                    6          7          8          9         10
     6  C    0.000000
     7  O    2.392705   0.000000
     8  O    3.133570   2.274965   0.000000
     9  O    1.432682   2.808337   4.268391   0.000000
    10  O    2.425565   4.064963   4.289405   2.701664   0.000000
    11  O    3.754134   3.676410   2.933531   4.461691   2.984782
    12  H    2.710997   3.245792   2.084771   4.102741   4.254887
    13  H    3.488178   2.807118   2.077101   4.596795   5.451276
    14  H    2.178339   2.062600   3.256636   2.674082   4.580086
    15  H    3.863500   2.056507   2.060518   4.426650   4.627940
    16  H    2.174733   3.484505   2.733163   3.353936   2.026688
    17  H    2.934338   2.626149   3.369347   3.005373   2.620676
    18  H    1.094331   3.357743   3.770950   2.026960   2.761069
    19  H    1.946716   2.290082   4.128668   0.974739   3.170627
    20  H    2.366534   3.989638   4.713581   2.097808   0.976357
    21  H    4.484760   3.984538   3.406127   5.032683   3.738546
                   11         12         13         14         15
    11  O    0.000000
    12  H    4.174558   0.000000
    13  H    4.914393   1.784761   0.000000
    14  H    5.154416   2.831721   2.427416   0.000000
    15  H    2.757854   4.015490   3.631033   4.000446   0.000000
    16  H    2.471036   2.487321   3.900778   3.898361   3.850632
    17  H    2.082991   4.514580   4.914785   4.228153   2.525773
    18  H    4.503878   2.690882   3.762129   2.533824   4.842152
    19  H    4.343759   4.393753   4.572839   2.676478   3.875488
    20  H    3.607096   4.696412   5.702189   4.419275   4.825546
    21  H    0.970734   4.946483   5.444750   5.708486   2.651494
                   16         17         18         19         20
    16  H    0.000000
    17  H    3.032446   0.000000
    18  H    2.415435   3.940649   0.000000
    19  H    3.746603   2.599714   2.805221   0.000000
    20  H    2.778782   2.630041   2.772470   2.572285   0.000000
    21  H    3.424050   2.243317   5.330436   4.751111   4.236251
                   21
    21  H    0.000000
 Stoichiometry    C6H10O5
 Framework group  C1[X(C6H10O5)]
 Deg. of freedom    57
 Full point group                 C1      NOp   1
 Largest Abelian subgroup         C1      NOp   1
 Largest concise Abelian subgroup C1      NOp   1
                         Standard orientation:                         
 ---------------------------------------------------------------------
 Center     Atomic      Atomic             Coordinates (Angstroms)
 Number     Number       Type             X           Y           Z
 ---------------------------------------------------------------------
      1          6           0        1.848518   -0.469692   -1.026040
      2          6           0        0.985152   -1.292031   -0.061779
      3          6           0        1.020871    0.792880    0.715277
      4          6           0       -1.042898    0.153166   -0.585185
      5          6           0       -0.469311    1.110026    0.477727
      6          6           0       -0.507684   -1.289381   -0.400598
      7          8           0        1.139583   -0.550045    1.169413
      8          8           0        1.764130    0.866718   -0.497377
      9          8           0       -1.243908   -1.938750    0.642892
     10          8           0       -2.461574    0.135714   -0.587098
     11          8           0       -0.659798    2.439086    0.010399
     12          1           0        1.482268   -0.486966   -2.057622
     13          1           0        2.892067   -0.800691   -1.009093
     14          1           0        1.350314   -2.306213    0.108382
     15          1           0        1.475097    1.458709    1.454991
     16          1           0       -0.730789    0.535039   -1.563000
     17          1           0       -0.999132    0.951735    1.428669
     18          1           0       -0.703307   -1.866881   -1.309325
     19          1           0       -0.848234   -1.643023    1.483192
     20          1           0       -2.698683   -0.535659    0.080967
     21          1           0       -0.534954    3.042356    0.760602
 ---------------------------------------------------------------------
 Rotational constants (GHZ):      1.4654227      1.2953269      0.8841122
 Standard basis: 6-31+G(d,p) (6D, 7F)
 There are   259 symmetry adapted basis functions of A   symmetry.
 Integral buffers will be    131072 words long.
 Raffenetti 2 integral format.
 Two-electron integral symmetry is turned on.
   259 basis functions,   422 primitive gaussians,   259 cartesian basis functions
    43 alpha electrons       43 beta electrons
       nuclear repulsion energy       727.1801035826 Hartrees.
 NAtoms=   21 NActive=   21 NUniq=   21 SFac= 1.00D+00 NAtFMM=   60 NAOKFM=F Big=F
 ------------------------------------------------------------------------------
 Polarizable Continuum Model (PCM)
 =================================
 Model                : PCM.
 Atomic radii         : UFF (Universal Force Field).
 Polarization charges : Total charges.
 Charge compensation  : None.
 Solution method      : Matrix inversion.
 Cavity type          : Scaled VdW (van der Waals Surface) (Alpha=1.100).
 Cavity algorithm     : GePol (No added spheres)
                        Default sphere list used, NSphG=   21.
                        Lebedev-Laikov grids with approx.  5.0 points / Ang**2.
                        Smoothing algorithm: Karplus/York (Gamma=1.0000).
                        Polarization charges: spherical gaussians, with
                                              point-specific exponents (IZeta= 3).
                        Self-potential: point-specific (ISelfS= 7).
                        Self-field    : sphere-specific E.n sum rule (ISelfD= 2).
 Solvent              : Water, Eps=  78.355300 Eps(inf)=   1.777849
 ------------------------------------------------------------------------------
 One-electron integrals computed using PRISM.
 NBasis=   259 RedAO= T  NBF=   259
 NBsUse=   259 1.00D-06 NBFU=   259
 Harris functional with IExCor=  908 diagonalized for initial guess.
 ExpMin= 4.38D-02 ExpMax= 5.48D+03 ExpMxC= 8.25D+02 IAcc=2 IRadAn=         4 AccDes= 0.00D+00
 HarFok:  IExCor=  908 AccDes= 0.00D+00 IRadAn=         4 IDoV= 1
 ScaDFX=  1.000000  1.000000  1.000000  1.000000
 FoFCou: FMM=F IPFlag=           0 FMFlag=      100000 FMFlg1=           0
         NFxFlg=           0 DoJE=T BraDBF=F KetDBF=T FulRan=T
         Omega=  0.000000  0.000000  1.000000  0.000000  0.000000 ICntrl=     500 IOpCl=  0
         NMat0=    1 NMatS0=    1 NMatT0=    0 NMatD0=    1 NMtDS0=    0 NMtDT0=    0
         I1Cent=           4 NGrid=           0.
 Petite list used in FoFCou.
 Initial guess orbital symmetries:
       Occupied  (A) (A) (A) (A) (A) (A) (A) (A) (A) (A) (A) (A)
                 (A) (A) (A) (A) (A) (A) (A) (A) (A) (A) (A) (A)
                 (A) (A) (A) (A) (A) (A) (A) (A) (A) (A) (A) (A)
                 (A) (A) (A) (A) (A) (A) (A)
       Virtual   (A) (A) (A) (A) (A) (A) (A) (A) (A) (A) (A) (A)
                 (A) (A) (A) (A) (A) (A) (A) (A) (A) (A) (A) (A)
                 (A) (A) (A) (A) (A) (A) (A) (A) (A) (A) (A) (A)
                 (A) (A) (A) (A) (A) (A) (A) (A) (A) (A) (A) (A)
                 (A) (A) (A) (A) (A) (A) (A) (A) (A) (A) (A) (A)
                 (A) (A) (A) (A) (A) (A) (A) (A) (A) (A) (A) (A)
                 (A) (A) (A) (A) (A) (A) (A) (A) (A) (A) (A) (A)
                 (A) (A) (A) (A) (A) (A) (A) (A) (A) (A) (A) (A)
                 (A) (A) (A) (A) (A) (A) (A) (A) (A) (A) (A) (A)
                 (A) (A) (A) (A) (A) (A) (A) (A) (A) (A) (A) (A)
                 (A) (A) (A) (A) (A) (A) (A) (A) (A) (A) (A) (A)
                 (A) (A) (A) (A) (A) (A) (A) (A) (A) (A) (A) (A)
                 (A) (A) (A) (A) (A) (A) (A) (A) (A) (A) (A) (A)
                 (A) (A) (A) (A) (A) (A) (A) (A) (A) (A) (A) (A)
                 (A) (A) (A) (A) (A) (A) (A) (A) (A) (A) (A) (A)
                 (A) (A) (A) (A) (A) (A) (A) (A) (A) (A) (A) (A)
                 (A) (A) (A) (A) (A) (A) (A) (A) (A) (A) (A) (A)
                 (A) (A) (A) (A) (A) (A) (A) (A) (A) (A) (A) (A)
 The electronic state of the initial guess is 1-A.
 Requested convergence on RMS density matrix=1.00D-08 within 128 cycles.
 Requested convergence on MAX density matrix=1.00D-06.
 Requested convergence on             energy=1.00D-06.
 No special actions if energy rises.
 Error on total polarization charges =  0.01157
 SCF Done:  E(RmPW1PW91) =  -610.652277042     A.U. after   12 cycles
             Convg  =    0.6883D-08             -V/T =  2.0090
 Range of M.O.s used for correlation:     1   259
 NBasis=   259 NAE=    43 NBE=    43 NFC=     0 NFV=     0
 NROrb=    259 NOA=    43 NOB=    43 NVA=   216 NVB=   216

 **** Warning!!: The largest alpha MO coefficient is  0.54691069D+02

 NEqPCM:  Using equilibrium solvation (IEInf=0, Eps=  78.3553, EpsInf=   1.7778)
          Differentiating once with respect to magnetic field using GIAOs.
          Electric field/nuclear overlap derivatives assumed to be zero.
 FoFCou: FMM=F IPFlag=           0 FMFlag=    10101102 FMFlg1=           0
         NFxFlg=    40000000 DoJE=F BraDBF=F KetDBF=T FulRan=T
         Omega=  0.000000  0.000000  1.000000  0.000000  0.000000 ICntrl=    6100 IOpCl=  0
         NMat0=    1 NMatS0=    1 NMatT0=    0 NMatD0=    1 NMtDS0=    0 NMtDT0=    0
         I1Cent=           7 NGrid=        1532.
 Symmetry not used in FoFCou.
          There are     3 degrees of freedom in the 1st order CPHF.  IDoFFX=0.
      3 vectors produced by pass  0 Test12= 3.10D-13 3.33D-08 XBig12= 1.91D+01 6.37D-01.
 AX will form     3 AO Fock derivatives at one time.
      3 vectors produced by pass  1 Test12= 3.10D-13 3.33D-08 XBig12= 4.50D-02 2.33D-02.
      3 vectors produced by pass  2 Test12= 3.10D-13 3.33D-08 XBig12= 9.09D-05 1.34D-03.
      3 vectors produced by pass  3 Test12= 3.10D-13 3.33D-08 XBig12= 3.64D-07 8.06D-05.
      3 vectors produced by pass  4 Test12= 3.10D-13 3.33D-08 XBig12= 1.22D-09 4.87D-06.
      3 vectors produced by pass  5 Test12= 3.10D-13 3.33D-08 XBig12= 3.87D-12 3.44D-07.
 Inverted reduced A of dimension    18 with in-core refinement.
 Calculating GIAO nuclear magnetic shielding tensors.
 SCF GIAO Magnetic shielding tensor (ppm):
      1  C    Isotropic =   129.6695   Anisotropy =    63.0549
   XX=   107.0921   YX=    -0.6349   ZX=   -11.7465
   XY=     1.0635   YY=   164.6290   ZY=    16.3101
   XZ=    -5.2167   YZ=    22.5899   ZZ=   117.2873
   Eigenvalues:   100.4299   116.8725   171.7061
      2  C    Isotropic =   117.1994   Anisotropy =    48.9405
   XX=   105.5579   YX=    14.2318   ZX=    -6.1408
   XY=     9.4584   YY=   110.3090   ZY=    16.1230
   XZ=     5.4213   YZ=    29.3341   ZZ=   135.7312
   Eigenvalues:    89.8473   111.9245   149.8263
      3  C    Isotropic =    92.4444   Anisotropy =    25.4801
   XX=    82.9117   YX=   -13.9665   ZX=   -20.0928
   XY=    -1.0158   YY=   102.3529   ZY=   -12.1391
   XZ=   -13.2953   YZ=    -8.9557   ZZ=    92.0685
   Eigenvalues:    65.9443   101.9576   109.4311
      4  C    Isotropic =   124.9442   Anisotropy =    34.5958
   XX=   147.2222   YX=     6.7074   ZX=     4.4456
   XY=     2.7073   YY=   117.3615   ZY=     7.2587
   XZ=    -3.2508   YZ=     4.7111   ZZ=   110.2489
   Eigenvalues:   106.7598   120.0647   148.0081
      5  C    Isotropic =   119.0158   Anisotropy =    23.0643
   XX=   121.9400   YX=    -6.6437   ZX=     4.4596
   XY=     2.3009   YY=   129.9617   ZY=    -2.5605
   XZ=     3.5007   YZ=   -17.3437   ZZ=   105.1457
   Eigenvalues:   101.1960   121.4595   134.3920
      6  C    Isotropic =   123.1411   Anisotropy =    38.4185
   XX=   125.8776   YX=    10.1253   ZX=   -22.0233
   XY=    -0.8136   YY=   115.7028   ZY=   -11.0748
   XZ=    -9.7262   YZ=   -18.1080   ZZ=   127.8428
   Eigenvalues:   104.2471   116.4227   148.7534
      7  O    Isotropic =   243.2506   Anisotropy =    66.7371
   XX=   198.5547   YX=   -31.6133   ZX=   -32.1766
   XY=    -8.8288   YY=   282.9899   ZY=   -17.3492
   XZ=   -45.4512   YZ=    -4.1455   ZZ=   248.2073
   Eigenvalues:   172.5585   269.4514   287.7420
      8  O    Isotropic =   275.0009   Anisotropy =   102.7261
   XX=   219.9321   YX=     9.7519   ZX=   -64.8598
   XY=     4.8457   YY=   310.3223   ZY=    -4.3632
   XZ=   -62.5741   YZ=   -33.7022   ZZ=   294.7484
   Eigenvalues:   183.3752   298.1425   343.4850
      9  O    Isotropic =   303.8698   Anisotropy =    42.1987
   XX=   288.9956   YX=     6.2491   ZX=    25.4870
   XY=    19.6849   YY=   296.2088   ZY=     2.1437
   XZ=     4.6444   YZ=    -4.8447   ZZ=   326.4050
   Eigenvalues:   275.7590   303.8482   332.0023
     10  O    Isotropic =   302.8608   Anisotropy =    32.7011
   XX=   311.3683   YX=     9.6863   ZX=     4.8448
   XY=    25.5043   YY=   297.1876   ZY=    -2.3472
   XZ=    15.1057   YZ=    -7.1176   ZZ=   300.0265
   Eigenvalues:   280.5001   303.4208   324.6615
     11  O    Isotropic =   300.7356   Anisotropy =    64.1850
   XX=   270.3131   YX=    21.6668   ZX=     4.6167
   XY=     3.3595   YY=   329.2796   ZY=    17.0991
   XZ=    11.3700   YZ=    24.2031   ZZ=   302.6141
   Eigenvalues:   267.2736   291.4076   343.5256
     12  H    Isotropic =    27.7005   Anisotropy =     7.4129
   XX=    25.6240   YX=    -0.3900   ZX=    -0.6214
   XY=     0.3803   YY=    25.7700   ZY=     3.1819
   XZ=    -1.8011   YZ=     1.2836   ZZ=    31.7074
   Eigenvalues:    24.8024    25.6566    32.6424
     13  H    Isotropic =    27.5904   Anisotropy =    11.4090
   XX=    31.8675   YX=    -3.0130   ZX=    -3.5056
   XY=    -4.5742   YY=    27.6152   ZY=     1.8035
   XZ=    -2.8596   YZ=     1.6910   ZZ=    23.2884
   Eigenvalues:    22.1794    25.3954    35.1963
     14  H    Isotropic =    26.9436   Anisotropy =     8.4924
   XX=    26.0164   YX=    -3.2568   ZX=     0.1135
   XY=    -2.4882   YY=    31.2278   ZY=     0.1161
   XZ=    -0.4561   YZ=     1.8588   ZZ=    23.5867
   Eigenvalues:    23.4371    24.7885    32.6052
     15  H    Isotropic =    26.3013   Anisotropy =     7.5049
   XX=    24.5241   YX=     1.5545   ZX=     1.2972
   XY=     1.3131   YY=    26.6954   ZY=     3.2942
   XZ=     1.9374   YZ=     3.4856   ZZ=    27.6844
   Eigenvalues:    23.7559    23.8434    31.3046
     16  H    Isotropic =    27.9891   Anisotropy =     3.1576
   XX=    29.9357   YX=     0.9021   ZX=    -0.6949
   XY=    -0.3328   YY=    24.7767   ZY=    -0.7575
   XZ=     0.3357   YZ=    -2.0930   ZZ=    29.2549
   Eigenvalues:    24.3527    29.5205    30.0942
     17  H    Isotropic =    28.1096   Anisotropy =     3.0702
   XX=    25.8571   YX=    -1.0701   ZX=    -1.7030
   XY=    -1.0738   YY=    29.8395   ZY=    -0.6337
   XZ=    -2.0106   YZ=     0.0865   ZZ=    28.6324
   Eigenvalues:    24.6989    29.4736    30.1564
     18  H    Isotropic =    27.8057   Anisotropy =     7.2474
   XX=    24.7216   YX=     0.7730   ZX=    -1.1794
   XY=     1.7992   YY=    27.6100   ZY=     2.2989
   XZ=     0.2414   YZ=     3.2733   ZZ=    31.0854
   Eigenvalues:    23.8795    26.9002    32.6373
     19  H    Isotropic =    29.6210   Anisotropy =    15.2429
   XX=    26.6701   YX=     5.0184   ZX=     3.1864
   XY=     4.0088   YY=    23.7154   ZY=     1.9202
   XZ=     3.6430   YZ=     0.6447   ZZ=    38.4775
   Eigenvalues:    20.3880    28.6921    39.7830
     20  H    Isotropic =    28.5935   Anisotropy =    15.6716
   XX=    29.6699   YX=     2.2276   ZX=    -3.1347
   XY=     0.9217   YY=    29.7148   ZY=    -9.6265
   XZ=    -4.0583   YZ=    -9.3721   ZZ=    26.3956
   Eigenvalues:    18.1343    28.6049    39.0412
     21  H    Isotropic =    29.8097   Anisotropy =    20.6853
   XX=    21.0369   YX=    -0.6363   ZX=     2.1083
   XY=    -0.0344   YY=    36.8818   ZY=     9.2857
   XZ=     1.1138   YZ=     8.6937   ZZ=    31.5103
   Eigenvalues:    20.4998    25.3293    43.5998
 End of Minotr Frequency-dependent properties file   721 does not exist.
 End of Minotr Frequency-dependent properties file   722 does not exist.

 **********************************************************************

            Population analysis using the SCF density.

 **********************************************************************

 Orbital symmetries:
       Occupied  (A) (A) (A) (A) (A) (A) (A) (A) (A) (A) (A) (A)
                 (A) (A) (A) (A) (A) (A) (A) (A) (A) (A) (A) (A)
                 (A) (A) (A) (A) (A) (A) (A) (A) (A) (A) (A) (A)
                 (A) (A) (A) (A) (A) (A) (A)
       Virtual   (A) (A) (A) (A) (A) (A) (A) (A) (A) (A) (A) (A)
                 (A) (A) (A) (A) (A) (A) (A) (A) (A) (A) (A) (A)
                 (A) (A) (A) (A) (A) (A) (A) (A) (A) (A) (A) (A)
                 (A) (A) (A) (A) (A) (A) (A) (A) (A) (A) (A) (A)
                 (A) (A) (A) (A) (A) (A) (A) (A) (A) (A) (A) (A)
                 (A) (A) (A) (A) (A) (A) (A) (A) (A) (A) (A) (A)
                 (A) (A) (A) (A) (A) (A) (A) (A) (A) (A) (A) (A)
                 (A) (A) (A) (A) (A) (A) (A) (A) (A) (A) (A) (A)
                 (A) (A) (A) (A) (A) (A) (A) (A) (A) (A) (A) (A)
                 (A) (A) (A) (A) (A) (A) (A) (A) (A) (A) (A) (A)
                 (A) (A) (A) (A) (A) (A) (A) (A) (A) (A) (A) (A)
                 (A) (A) (A) (A) (A) (A) (A) (A) (A) (A) (A) (A)
                 (A) (A) (A) (A) (A) (A) (A) (A) (A) (A) (A) (A)
                 (A) (A) (A) (A) (A) (A) (A) (A) (A) (A) (A) (A)
                 (A) (A) (A) (A) (A) (A) (A) (A) (A) (A) (A) (A)
                 (A) (A) (A) (A) (A) (A) (A) (A) (A) (A) (A) (A)
                 (A) (A) (A) (A) (A) (A) (A) (A) (A) (A) (A) (A)
                 (A) (A) (A) (A) (A) (A) (A) (A) (A) (A) (A) (A)
 The electronic state is 1-A.
 Alpha  occ. eigenvalues --  -19.28542 -19.27282 -19.27136 -19.26526 -19.25799
 Alpha  occ. eigenvalues --  -10.36143 -10.32396 -10.31969 -10.31327 -10.31266
 Alpha  occ. eigenvalues --  -10.31156  -1.14742  -1.08775  -1.07277  -1.05375
 Alpha  occ. eigenvalues --   -1.04280  -0.82813  -0.80982  -0.70987  -0.68182
 Alpha  occ. eigenvalues --   -0.65694  -0.61217  -0.58102  -0.55654  -0.54384
 Alpha  occ. eigenvalues --   -0.52240  -0.51100  -0.49184  -0.47561  -0.46851
 Alpha  occ. eigenvalues --   -0.45048  -0.43850  -0.41649  -0.40492  -0.39297
 Alpha  occ. eigenvalues --   -0.38639  -0.36665  -0.35886  -0.34041  -0.32588
 Alpha  occ. eigenvalues --   -0.30697  -0.29706  -0.27742
 Alpha virt. eigenvalues --    0.00764   0.01520   0.01697   0.02348   0.03716
 Alpha virt. eigenvalues --    0.04835   0.05402   0.05540   0.05945   0.07665
 Alpha virt. eigenvalues --    0.08182   0.09628   0.10143   0.10413   0.11109
 Alpha virt. eigenvalues --    0.12340   0.12599   0.13516   0.13712   0.14254
 Alpha virt. eigenvalues --    0.15055   0.15640   0.16128   0.16485   0.17346
 Alpha virt. eigenvalues --    0.17720   0.19167   0.19395   0.20174   0.21041
 Alpha virt. eigenvalues --    0.21731   0.21980   0.22454   0.23366   0.23628
 Alpha virt. eigenvalues --    0.24113   0.24884   0.26037   0.26393   0.27140
 Alpha virt. eigenvalues --    0.27955   0.28022   0.28979   0.29444   0.30520
 Alpha virt. eigenvalues --    0.31299   0.32579   0.33095   0.33464   0.33901
 Alpha virt. eigenvalues --    0.34262   0.35377   0.35564   0.36055   0.36751
 Alpha virt. eigenvalues --    0.37176   0.38559   0.38743   0.38953   0.40046
 Alpha virt. eigenvalues --    0.41623   0.42445   0.44209   0.45764   0.46837
 Alpha virt. eigenvalues --    0.48077   0.64935   0.66211   0.67129   0.67540
 Alpha virt. eigenvalues --    0.70585   0.71420   0.75588   0.77036   0.77882
 Alpha virt. eigenvalues --    0.80632   0.80885   0.83319   0.85616   0.86405
 Alpha virt. eigenvalues --    0.88167   0.89729   0.95216   0.96396   0.98381
 Alpha virt. eigenvalues --    1.02624   1.04177   1.04229   1.05966   1.07872
 Alpha virt. eigenvalues --    1.09434   1.09839   1.11719   1.13096   1.13841
 Alpha virt. eigenvalues --    1.19129   1.19637   1.22736   1.25876   1.27248
 Alpha virt. eigenvalues --    1.28069   1.29933   1.31286   1.32293   1.34997
 Alpha virt. eigenvalues --    1.35024   1.36796   1.37378   1.39743   1.41163
 Alpha virt. eigenvalues --    1.41676   1.43919   1.45726   1.46964   1.51610
 Alpha virt. eigenvalues --    1.53553   1.55549   1.57731   1.59117   1.60827
 Alpha virt. eigenvalues --    1.62051   1.63680   1.65467   1.66853   1.68067
 Alpha virt. eigenvalues --    1.71403   1.72651   1.74301   1.75019   1.78374
 Alpha virt. eigenvalues --    1.81500   1.82704   1.84343   1.85356   1.88169
 Alpha virt. eigenvalues --    1.90189   1.92053   1.93783   1.96762   1.98386
 Alpha virt. eigenvalues --    2.01078   2.03100   2.06392   2.07205   2.08713
 Alpha virt. eigenvalues --    2.12141   2.12345   2.14384   2.16585   2.17943
 Alpha virt. eigenvalues --    2.18834   2.20826   2.21478   2.24571   2.28366
 Alpha virt. eigenvalues --    2.30795   2.35270   2.37835   2.40104   2.42172
 Alpha virt. eigenvalues --    2.46013   2.47130   2.48776   2.50567   2.52390
 Alpha virt. eigenvalues --    2.54706   2.57833   2.59424   2.60557   2.64038
 Alpha virt. eigenvalues --    2.65469   2.67395   2.67736   2.68883   2.71971
 Alpha virt. eigenvalues --    2.72776   2.75450   2.75661   2.77157   2.80990
 Alpha virt. eigenvalues --    2.83576   2.85356   2.87539   2.89304   2.90278
 Alpha virt. eigenvalues --    2.93786   2.95956   2.97513   2.98962   3.02316
 Alpha virt. eigenvalues --    3.05228   3.09562   3.11660   3.12973   3.22759
 Alpha virt. eigenvalues --    3.34959   3.40790   3.42970   3.46426   3.50061
 Alpha virt. eigenvalues --    3.51435   3.53248   3.54523   3.58443   3.60912
 Alpha virt. eigenvalues --    4.29445   4.35747   4.42574   4.42763   4.50225
 Alpha virt. eigenvalues --    4.60465   4.63256   4.74017   4.84425   4.90721
 Alpha virt. eigenvalues --    4.97415
          Condensed to atoms (all electrons):
              1          2          3          4          5          6
     1  C    5.594396  -0.251188  -0.356640  -0.105928   0.150906   0.086480
     2  C   -0.251188   6.762927  -0.332390   0.105821   0.128181  -0.639293
     3  C   -0.356640  -0.332390   6.761370   0.238722  -1.171361   0.146481
     4  C   -0.105928   0.105821   0.238722   7.066547  -0.960003  -0.535048
     5  C    0.150906   0.128181  -1.171361  -0.960003   7.415588   0.024176
     6  C    0.086480  -0.639293   0.146481  -0.535048   0.024176   6.458213
     7  O   -0.031113   0.130987   0.249920  -0.056251  -0.044989  -0.105548
     8  O    0.184306  -0.123435   0.371758   0.047667  -0.247138  -0.019986
     9  O    0.001324  -0.113072  -0.037562  -0.163731   0.070130   0.329038
    10  O   -0.003363   0.017468   0.048649   0.301575  -0.197297  -0.048565
    11  O    0.023649  -0.036357  -0.085814  -0.217817   0.291527   0.086383
    12  H    0.457904  -0.159065   0.006472  -0.051035   0.025411   0.077696
    13  H    0.383736   0.007635  -0.004622   0.013463  -0.005108  -0.009283
    14  H    0.015473   0.290400   0.010262   0.009352  -0.004399   0.025144
    15  H    0.012984   0.027270   0.351170   0.017511  -0.007260  -0.018071
    16  H    0.004591  -0.021802  -0.000356   0.420024  -0.041853  -0.039869
    17  H    0.001589  -0.022402  -0.025282  -0.077370   0.385614   0.026554
    18  H    0.024675  -0.038787  -0.030398  -0.024432   0.056243   0.342946
    19  H    0.007959  -0.025435  -0.006724  -0.005352   0.022610  -0.008210
    20  H    0.000362   0.013256   0.000460   0.032917  -0.024384  -0.052453
    21  H   -0.003197   0.005323  -0.041018   0.027583   0.033350  -0.011962
              7          8          9         10         11         12
     1  C   -0.031113   0.184306   0.001324  -0.003363   0.023649   0.457904
     2  C    0.130987  -0.123435  -0.113072   0.017468  -0.036357  -0.159065
     3  C    0.249920   0.371758  -0.037562   0.048649  -0.085814   0.006472
     4  C   -0.056251   0.047667  -0.163731   0.301575  -0.217817  -0.051035
     5  C   -0.044989  -0.247138   0.070130  -0.197297   0.291527   0.025411
     6  C   -0.105548  -0.019986   0.329038  -0.048565   0.086383   0.077696
     7  O    8.301046  -0.042010  -0.005943  -0.003559   0.006969   0.011806
     8  O   -0.042010   8.315518   0.000630  -0.001303   0.005493  -0.045880
     9  O   -0.005943   0.000630   8.273667  -0.030548  -0.004248   0.000086
    10  O   -0.003559  -0.001303  -0.030548   8.256252   0.009474  -0.000093
    11  O    0.006969   0.005493  -0.004248   0.009474   8.272230   0.000244
    12  H    0.011806  -0.045880   0.000086  -0.000093   0.000244   0.525579
    13  H   -0.005466  -0.051058  -0.000199  -0.000002  -0.000061  -0.036738
    14  H   -0.037613   0.007073   0.000287  -0.000572   0.000073   0.001980
    15  H   -0.045078  -0.048400  -0.000181  -0.000525  -0.005813  -0.000262
    16  H    0.000608   0.004577   0.010383  -0.053552  -0.003934   0.001263
    17  H    0.002788   0.010647   0.006137   0.000498  -0.040308  -0.000020
    18  H    0.010591  -0.000638  -0.048598  -0.002237  -0.000625   0.000058
    19  H    0.027330  -0.000792   0.248298  -0.001252   0.000021  -0.000012
    20  H   -0.000674   0.000277   0.032843   0.247441  -0.000492  -0.000008
    21  H    0.000410  -0.001893   0.000055  -0.001822   0.244272  -0.000003
             13         14         15         16         17         18
     1  C    0.383736   0.015473   0.012984   0.004591   0.001589   0.024675
     2  C    0.007635   0.290400   0.027270  -0.021802  -0.022402  -0.038787
     3  C   -0.004622   0.010262   0.351170  -0.000356  -0.025282  -0.030398
     4  C    0.013463   0.009352   0.017511   0.420024  -0.077370  -0.024432
     5  C   -0.005108  -0.004399  -0.007260  -0.041853   0.385614   0.056243
     6  C   -0.009283   0.025144  -0.018071  -0.039869   0.026554   0.342946
     7  O   -0.005466  -0.037613  -0.045078   0.000608   0.002788   0.010591
     8  O   -0.051058   0.007073  -0.048400   0.004577   0.010647  -0.000638
     9  O   -0.000199   0.000287  -0.000181   0.010383   0.006137  -0.048598
    10  O   -0.000002  -0.000572  -0.000525  -0.053552   0.000498  -0.002237
    11  O   -0.000061   0.000073  -0.005813  -0.003934  -0.040308  -0.000625
    12  H   -0.036738   0.001980  -0.000262   0.001263  -0.000020   0.000058
    13  H    0.527760  -0.003108   0.000320   0.000030   0.000018  -0.000011
    14  H   -0.003108   0.486686   0.000002  -0.000105  -0.000026  -0.001972
    15  H    0.000320   0.000002   0.528741  -0.000250  -0.003007   0.000020
    16  H    0.000030  -0.000105  -0.000250   0.522573   0.004297  -0.004290
    17  H    0.000018  -0.000026  -0.003007   0.004297   0.557168  -0.000186
    18  H   -0.000011  -0.001972   0.000020  -0.004290  -0.000186   0.516306
    19  H   -0.000007  -0.000603   0.000083  -0.000254  -0.001506   0.005777
    20  H    0.000000  -0.000017  -0.000001   0.005978   0.001426  -0.000923
    21  H    0.000001   0.000000   0.002825   0.000068  -0.006989   0.000004
             19         20         21
     1  C    0.007959   0.000362  -0.003197
     2  C   -0.025435   0.013256   0.005323
     3  C   -0.006724   0.000460  -0.041018
     4  C   -0.005352   0.032917   0.027583
     5  C    0.022610  -0.024384   0.033350
     6  C   -0.008210  -0.052453  -0.011962
     7  O    0.027330  -0.000674   0.000410
     8  O   -0.000792   0.000277  -0.001893
     9  O    0.248298   0.032843   0.000055
    10  O   -0.001252   0.247441  -0.001822
    11  O    0.000021  -0.000492   0.244272
    12  H   -0.000012  -0.000008  -0.000003
    13  H   -0.000007   0.000000   0.000001
    14  H   -0.000603  -0.000017   0.000000
    15  H    0.000083  -0.000001   0.002825
    16  H   -0.000254   0.005978   0.000068
    17  H   -0.001506   0.001426  -0.006989
    18  H    0.005777  -0.000923   0.000004
    19  H    0.346678  -0.002394   0.000003
    20  H   -0.002394   0.359374   0.000022
    21  H    0.000003   0.000022   0.362401
 Mulliken atomic charges:
              1
     1  C   -0.198903
     2  C    0.273960
     3  C   -0.093098
     4  C   -0.084215
     5  C    0.100056
     6  C   -0.114823
     7  O   -0.364213
     8  O   -0.365412
     9  O   -0.568794
    10  O   -0.536667
    11  O   -0.544865
    12  H    0.184618
    13  H    0.182701
    14  H    0.201683
    15  H    0.187923
    16  H    0.191872
    17  H    0.180359
    18  H    0.196478
    19  H    0.393782
    20  H    0.386989
    21  H    0.390567
 Sum of Mulliken atomic charges =   0.00000
 Mulliken charges with hydrogens summed into heavy atoms:
              1
     1  C    0.168417
     2  C    0.475644
     3  C    0.094825
     4  C    0.107657
     5  C    0.280415
     6  C    0.081655
     7  O   -0.364213
     8  O   -0.365412
     9  O   -0.175012
    10  O   -0.149678
    11  O   -0.154297
 Sum of Mulliken charges with hydrogens summed into heavy atoms =   0.00000
 Electronic spatial extent (au):  <R**2>=           1431.5754
 Charge=              0.0000 electrons
 Dipole moment (field-independent basis, Debye):
    X=              2.6952    Y=             -1.7874    Z=              2.1589  Tot=              3.8884
 Quadrupole moment (field-independent basis, Debye-Ang):
   XX=            -73.4185   YY=            -64.6624   ZZ=            -59.6284
   XY=             -2.5526   XZ=             -6.4364   YZ=             10.7790
 Traceless Quadrupole moment (field-independent basis, Debye-Ang):
   XX=             -7.5154   YY=              1.2407   ZZ=              6.2747
   XY=             -2.5526   XZ=             -6.4364   YZ=             10.7790
 Octapole moment (field-independent basis, Debye-Ang**2):
  XXX=             15.1273  YYY=             18.1803  ZZZ=              4.0479  XYY=             11.4556
  XXY=            -14.0105  XXZ=             10.1729  XZZ=             -1.9155  YZZ=              2.3043
  YYZ=             18.1397  XYZ=              2.5204
 Hexadecapole moment (field-independent basis, Debye-Ang**3):
 XXXX=           -824.0985 YYYY=           -643.5959 ZZZZ=           -256.2395 XXXY=              6.0116
 XXXZ=            -40.5574 YYYX=            -27.7249 YYYZ=             60.4183 ZZZX=            -15.6947
 ZZZY=              1.2847 XXYY=           -264.9508 XXZZ=           -183.3122 YYZZ=           -138.7323
 XXYZ=             17.3354 YYXZ=              2.0114 ZZXY=              5.3936
 N-N= 7.271801035826D+02 E-N=-2.884061815625D+03  KE= 6.052002314135D+02
 1\1\GINC-COMPUTE-8-9\SP\RmPW1PW91\6-31+G(d,p)\C6H10O5\MMARCARINO.IQUIR
 \12-Apr-2019\0\\# mpw1pw91/6-31+g** nmr scrf=(pcm,solvent=water)\\comm
 ent\\0,1\C,0,1.848517,-0.469694,-1.02604\C,0,0.985151,-1.292032,-0.061
 779\C,0,1.020872,0.792879,0.715277\C,0,-1.042898,0.153167,-0.585185\C,
 0,-0.46931,1.110027,0.477727\C,0,-0.507685,-1.28938,-0.400598\O,0,1.13
 9582,-0.550046,1.169413\O,0,1.764131,0.866716,-0.497377\O,0,-1.24391,-
 1.938749,0.642892\O,0,-2.461574,0.135717,-0.587098\O,0,-0.659795,2.439
 087,0.010399\H,0,1.482267,-0.486968,-2.057622\H,0,2.892066,-0.800694,-
 1.009093\H,0,1.350311,-2.306214,0.108382\H,0,1.475099,1.458708,1.45499
 1\H,0,-0.730788,0.53504,-1.563\H,0,-0.999131,0.951736,1.428669\H,0,-0.
 703309,-1.86688,-1.309325\H,0,-0.848236,-1.643022,1.483192\H,0,-2.6986
 84,-0.535656,0.080967\H,0,-0.534951,3.042357,0.760602\\Version=EM64L-G
 09RevC.01\State=1-A\HF=-610.652277\RMSD=6.883e-09\Dipole=1.0603786,-0.
 7032301,0.8493631\Quadrupole=-5.5875446,0.9224586,4.6650859,-1.8977602
 ,-4.7853082,8.0139076\PG=C01 [X(C6H10O5)]\\@


 ONLY THE DAY DAWNS TO WHICH YOU ARE AWAKE.

                                 -- THOREAU
 Job cpu time:  0 days  0 hours 17 minutes 34.4 seconds.
 File lengths (MBytes):  RWF=     83 Int=      0 D2E=      0 Chk=      5 Scr=      1
 Normal termination of Gaussian 09 at Fri Apr 12 12:38:34 2019.
