 Entering Gaussian System, Link 0=g09
 Input=/home/asarotti.iquir/SCF3/08_SRR_Levo11_OPTB_energy_b3lyp_smd.gjc
 Output=/home/asarotti.iquir/SCF3/08_SRR_Levo11_OPTB_energy_b3lyp_smd.log
 Initial command:
 /share/apps/Gaussian09/EM64T.SSE4.2-enabled/g09/l1.exe /tmp/Gau-8997.inp -scrdir=/tmp/
 Entering Link 1 = /share/apps/Gaussian09/EM64T.SSE4.2-enabled/g09/l1.exe PID=      8998.
  
 Copyright (c) 1988,1990,1992,1993,1995,1998,2003,2009,2011,
            Gaussian, Inc.  All Rights Reserved.
  
 This is part of the Gaussian(R) 09 program.  It is based on
 the Gaussian(R) 03 system (copyright 2003, Gaussian, Inc.),
 the Gaussian(R) 98 system (copyright 1998, Gaussian, Inc.),
 the Gaussian(R) 94 system (copyright 1995, Gaussian, Inc.),
 the Gaussian 92(TM) system (copyright 1992, Gaussian, Inc.),
 the Gaussian 90(TM) system (copyright 1990, Gaussian, Inc.),
 the Gaussian 88(TM) system (copyright 1988, Gaussian, Inc.),
 the Gaussian 86(TM) system (copyright 1986, Carnegie Mellon
 University), and the Gaussian 82(TM) system (copyright 1983,
 Carnegie Mellon University). Gaussian is a federally registered
 trademark of Gaussian, Inc.
  
 This software contains proprietary and confidential information,
 including trade secrets, belonging to Gaussian, Inc.
  
 This software is provided under written license and may be
 used, copied, transmitted, or stored only in accord with that
 written license.
  
 The following legend is applicable only to US Government
 contracts under FAR:
  
                    RESTRICTED RIGHTS LEGEND
  
 Use, reproduction and disclosure by the US Government is
 subject to restrictions as set forth in subparagraphs (a)
 and (c) of the Commercial Computer Software - Restricted
 Rights clause in FAR 52.227-19.
  
 Gaussian, Inc.
 340 Quinnipiac St., Bldg. 40, Wallingford CT 06492
  
  
 ---------------------------------------------------------------
 Warning -- This program may not be used in any manner that
 competes with the business of Gaussian, Inc. or will provide
 assistance to any competitor of Gaussian, Inc.  The licensee
 of this program is prohibited from giving any competitor of
 Gaussian, Inc. access to this program.  By using this program,
 the user acknowledges that Gaussian, Inc. is engaged in the
 business of creating and licensing software in the field of
 computational chemistry and represents and warrants to the
 licensee that it is not a competitor of Gaussian, Inc. and that
 it will not use this program in any manner prohibited above.
 ---------------------------------------------------------------
  

 Cite this work as:
 Gaussian 09, Revision C.01,
 M. J. Frisch, G. W. Trucks, H. B. Schlegel, G. E. Scuseria, 
 M. A. Robb, J. R. Cheeseman, G. Scalmani, V. Barone, B. Mennucci, 
 G. A. Petersson, H. Nakatsuji, M. Caricato, X. Li, H. P. Hratchian, 
 A. F. Izmaylov, J. Bloino, G. Zheng, J. L. Sonnenberg, M. Hada, 
 M. Ehara, K. Toyota, R. Fukuda, J. Hasegawa, M. Ishida, T. Nakajima, 
 Y. Honda, O. Kitao, H. Nakai, T. Vreven, J. A. Montgomery, Jr., 
 J. E. Peralta, F. Ogliaro, M. Bearpark, J. J. Heyd, E. Brothers, 
 K. N. Kudin, V. N. Staroverov, T. Keith, R. Kobayashi, J. Normand, 
 K. Raghavachari, A. Rendell, J. C. Burant, S. S. Iyengar, J. Tomasi, 
 M. Cossi, N. Rega, J. M. Millam, M. Klene, J. E. Knox, J. B. Cross, 
 V. Bakken, C. Adamo, J. Jaramillo, R. Gomperts, R. E. Stratmann, 
 O. Yazyev, A. J. Austin, R. Cammi, C. Pomelli, J. W. Ochterski, 
 R. L. Martin, K. Morokuma, V. G. Zakrzewski, G. A. Voth, 
 P. Salvador, J. J. Dannenberg, S. Dapprich, A. D. Daniels, 
 O. Farkas, J. B. Foresman, J. V. Ortiz, J. Cioslowski, 
 and D. J. Fox, Gaussian, Inc., Wallingford CT, 2010.
 
 ******************************************
 Gaussian 09:  EM64L-G09RevC.01 23-Sep-2011
                15-Apr-2019 
 ******************************************
 %nprocshared=4
 Will use up to    4 processors via shared memory.
 -----------------------------------------------------------
 # B3LYP/6-31+G** test scrf=(pcm,solvent=water,smd,dovacuum)
 -----------------------------------------------------------
 1/38=1/1;
 2/12=2,17=6,18=5,40=1/2;
 3/5=1,6=6,7=111,11=2,16=1,25=1,30=1,70=32101,72=1,74=-5/1,2,3;
 4//1;
 5/5=2,38=5,53=1/2;
 6/7=2,8=2,9=2,10=2,28=1/1;
 99/5=1,9=1/99;
 -------
 comment
 -------
 Charge =  0 Multiplicity = 1
 Symbolic Z-Matrix:
 6                     1.8823    0.02673   1.05697 
 6                     1.27377   1.00933   0.04364 
 6                     0.82703  -1.03073  -0.696 
 6                    -1.01426   0.12117   0.55233 
 6                    -0.70074  -0.91947  -0.5273 
 6                    -0.18807   1.40175   0.35364 
 8                     1.30775   0.21708  -1.15854 
 8                     1.47487  -1.26239   0.55689 
 8                    -0.75048   2.13975  -0.72434 
 8                    -2.39956   0.43072   0.59711 
 8                    -1.30785  -2.13618  -0.09513 
 1                     1.51147   0.16289   2.07792 
 1                     2.97594   0.08468   1.06092 
 1                     1.88892   1.89666  -0.12291 
 1                     1.116    -1.81656  -1.39994 
 1                    -0.70566  -0.3219    1.51027 
 1                    -1.12222  -0.58977  -1.48543 
 1                    -0.21513   1.9933    1.28163 
 1                    -0.23497   2.95698  -0.82003 
 1                    -2.84931  -0.42925   0.66155 
 1                    -1.44303  -2.7016   -0.87165 
 
                          Input orientation:                          
 ---------------------------------------------------------------------
 Center     Atomic      Atomic             Coordinates (Angstroms)
 Number     Number       Type             X           Y           Z
 ---------------------------------------------------------------------
      1          6           0        1.882299    0.026731    1.056966
      2          6           0        1.273770    1.009327    0.043644
      3          6           0        0.827026   -1.030730   -0.695998
      4          6           0       -1.014257    0.121174    0.552330
      5          6           0       -0.700739   -0.919465   -0.527298
      6          6           0       -0.188072    1.401753    0.353641
      7          8           0        1.307754    0.217078   -1.158535
      8          8           0        1.474867   -1.262386    0.556889
      9          8           0       -0.750478    2.139746   -0.724338
     10          8           0       -2.399561    0.430721    0.597114
     11          8           0       -1.307851   -2.136181   -0.095133
     12          1           0        1.511468    0.162891    2.077920
     13          1           0        2.975937    0.084677    1.060916
     14          1           0        1.888920    1.896657   -0.122911
     15          1           0        1.116003   -1.816556   -1.399935
     16          1           0       -0.705663   -0.321896    1.510265
     17          1           0       -1.122224   -0.589768   -1.485434
     18          1           0       -0.215132    1.993300    1.281628
     19          1           0       -0.234969    2.956981   -0.820028
     20          1           0       -2.849311   -0.429247    0.661553
     21          1           0       -1.443031   -2.701603   -0.871654
 ---------------------------------------------------------------------
                    Distance matrix (angstroms):
                    1          2          3          4          5
     1  C    0.000000
     2  C    1.537083   0.000000
     3  C    2.303195   2.215510   0.000000
     4  C    2.941703   2.506520   2.505101   0.000000
     5  C    3.174471   2.818670   1.541073   1.531933   0.000000
     6  C    2.582980   1.545017   2.837101   1.536861   2.535140
     7  O    2.296689   1.440155   1.414943   2.885826   2.392537
     8  O    1.441492   2.337636   1.429366   2.847806   2.454856
     9  O    3.816987   2.442381   3.541361   2.402934   3.065953
    10  O    4.325390   3.759584   3.770788   1.420173   2.444034
    11  O    4.022757   4.071639   2.478056   2.366655   1.426797
    12  H    1.094716   2.216130   3.096419   2.951009   3.585040
    13  H    1.095179   2.187965   2.991437   4.022641   4.129004
    14  H    2.211058   1.092476   3.166329   3.469399   3.847130
    15  H    3.165640   3.177173   1.093873   3.479101   2.206087
    16  H    2.650390   2.800230   2.778341   1.099628   2.123388
    17  H    3.983846   3.261284   2.148775   2.160921   1.097440
    18  H    2.883935   2.172012   3.760566   2.162252   3.462980
    19  H    4.073364   2.610666   4.128566   3.245375   3.915286
    20  H    4.769948   4.410341   3.964868   1.918936   2.504005
    21  H    4.713937   4.689326   2.824151   3.190556   1.961019
                    6          7          8          9         10
     6  C    0.000000
     7  O    2.434672   0.000000
     8  O    3.147112   2.271436   0.000000
     9  O    1.422313   2.849824   4.262418   0.000000
    10  O    2.427523   4.107570   4.228407   2.717807   0.000000
    11  O    3.737951   3.675601   2.988674   4.357765   2.874025
    12  H    2.719624   3.243313   2.084776   4.108163   4.190545
    13  H    3.499411   2.779627   2.078902   4.614825   5.406555
    14  H    2.187676   2.057002   3.257778   2.717946   4.588951
    15  H    3.890135   2.056869   2.065199   4.426343   4.625759
    16  H    2.139310   3.386271   2.558937   3.324927   2.066293
    17  H    2.867227   2.581212   3.371703   2.857920   2.647639
    18  H    1.100827   3.380613   3.739095   2.081332   2.771632
    19  H    1.948957   3.162538   4.756311   0.970968   3.616039
    20  H    3.244929   4.583846   4.404951   3.595208   0.972611
    21  H    4.462488   4.020922   3.553338   4.892851   3.589385
                   11         12         13         14         15
    11  O    0.000000
    12  H    4.237505   0.000000
    13  H    4.961804   1.784680   0.000000
    14  H    5.146251   2.827025   2.422050   0.000000
    15  H    2.771234   4.021204   3.623511   4.002017   0.000000
    16  H    2.496310   2.339427   3.731139   3.784323   3.744561
    17  H    2.087771   4.494477   4.871724   4.135912   2.553817
    18  H    4.487997   2.639247   3.724846   2.531621   4.845380
    19  H    5.255173   4.388062   4.700851   2.474099   4.994805
    20  H    2.421218   4.623107   5.861495   5.336295   4.679538
    21  H    0.970031   5.063040   5.570050   5.727697   2.758812
                   16         17         18         19         20
    16  H    0.000000
    17  H    3.036361   0.000000
    18  H    2.377610   3.892517   0.000000
    19  H    4.050044   3.716102   2.312149   0.000000
    20  H    2.308043   2.760100   3.632097   4.527296   0.000000
    21  H    3.446775   2.222496   5.309093   5.786333   3.080901
                   21
    21  H    0.000000
 Stoichiometry    C6H10O5
 Framework group  C1[X(C6H10O5)]
 Deg. of freedom    57
 Full point group                 C1      NOp   1
 Largest Abelian subgroup         C1      NOp   1
 Largest concise Abelian subgroup C1      NOp   1
                         Standard orientation:                         
 ---------------------------------------------------------------------
 Center     Atomic      Atomic             Coordinates (Angstroms)
 Number     Number       Type             X           Y           Z
 ---------------------------------------------------------------------
      1          6           0        1.882299    0.026731    1.056966
      2          6           0        1.273770    1.009327    0.043644
      3          6           0        0.827026   -1.030730   -0.695998
      4          6           0       -1.014257    0.121174    0.552330
      5          6           0       -0.700739   -0.919465   -0.527298
      6          6           0       -0.188072    1.401753    0.353641
      7          8           0        1.307754    0.217078   -1.158535
      8          8           0        1.474867   -1.262386    0.556889
      9          8           0       -0.750478    2.139746   -0.724338
     10          8           0       -2.399561    0.430721    0.597114
     11          8           0       -1.307852   -2.136181   -0.095133
     12          1           0        1.511468    0.162891    2.077920
     13          1           0        2.975937    0.084676    1.060916
     14          1           0        1.888920    1.896657   -0.122911
     15          1           0        1.116003   -1.816556   -1.399935
     16          1           0       -0.705663   -0.321896    1.510265
     17          1           0       -1.122224   -0.589768   -1.485434
     18          1           0       -0.215132    1.993300    1.281628
     19          1           0       -0.234969    2.956981   -0.820028
     20          1           0       -2.849311   -0.429246    0.661553
     21          1           0       -1.443032   -2.701603   -0.871654
 ---------------------------------------------------------------------
 Rotational constants (GHZ):      1.4650513      1.2877719      0.8865520
 Standard basis: 6-31+G(d,p) (6D, 7F)
 There are   259 symmetry adapted basis functions of A   symmetry.
 Integral buffers will be    131072 words long.
 Raffenetti 2 integral format.
 Two-electron integral symmetry is turned on.
   259 basis functions,   422 primitive gaussians,   259 cartesian basis functions
    43 alpha electrons       43 beta electrons
       nuclear repulsion energy       726.2091521971 Hartrees.
 NAtoms=   21 NActive=   21 NUniq=   21 SFac= 1.00D+00 NAtFMM=   60 NAOKFM=F Big=F
 ------------------------------------------------------------------------------
 Polarizable Continuum Model (PCM)
 =================================
 Model                : C-PCM.
 Atomic radii         : SMD-Coulomb.
 Polarization charges : Total charges.
 Charge compensation  : None.
 Solution method      : Matrix inversion.
 Cavity type          : VdW (van der Waals Surface) (Alpha=1.000).
 Cavity algorithm     : GePol (No added spheres)
                        Default sphere list used, NSphG=   21.
                        Lebedev-Laikov grids with approx.  5.0 points / Ang**2.
                        Smoothing algorithm: Karplus/York (Gamma=1.0000).
                        Polarization charges: spherical gaussians, with
                                              point-specific exponents (IZeta= 3).
                        Self-potential: point-specific (ISelfS= 7).
                        Self-field    : sphere-specific E.n sum rule (ISelfD= 2).
 Solvent              : Water, Eps=  78.355300 Eps(inf)=   1.777849
 ------------------------------------------------------------------------------
 ------------------------------------------------------------------------------
 Atomic radii for non-electrostatic terms: SMD-CDS.
 ------------------------------------------------------------------------------
 Nuclear repulsion after PCM non-electrostatic terms =      726.2144523061 Hartrees.
 One-electron integrals computed using PRISM.
 NBasis=   259 RedAO= T  NBF=   259
 NBsUse=   259 1.00D-06 NBFU=   259
 Harris functional with IExCor=  402 diagonalized for initial guess.
 ExpMin= 4.38D-02 ExpMax= 5.48D+03 ExpMxC= 8.25D+02 IAcc=2 IRadAn=         4 AccDes= 0.00D+00
 HarFok:  IExCor=  402 AccDes= 0.00D+00 IRadAn=         4 IDoV= 1
 ScaDFX=  1.000000  1.000000  1.000000  1.000000
 FoFCou: FMM=F IPFlag=           0 FMFlag=      100000 FMFlg1=           0
         NFxFlg=           0 DoJE=T BraDBF=F KetDBF=T FulRan=T
         Omega=  0.000000  0.000000  1.000000  0.000000  0.000000 ICntrl=     500 IOpCl=  0
         NMat0=    1 NMatS0=    1 NMatT0=    0 NMatD0=    1 NMtDS0=    0 NMtDT0=    0
         I1Cent=           4 NGrid=           0.
 Petite list used in FoFCou.
 Initial guess orbital symmetries:
       Occupied  (A) (A) (A) (A) (A) (A) (A) (A) (A) (A) (A) (A)
                 (A) (A) (A) (A) (A) (A) (A) (A) (A) (A) (A) (A)
                 (A) (A) (A) (A) (A) (A) (A) (A) (A) (A) (A) (A)
                 (A) (A) (A) (A) (A) (A) (A)
       Virtual   (A) (A) (A) (A) (A) (A) (A) (A) (A) (A) (A) (A)
                 (A) (A) (A) (A) (A) (A) (A) (A) (A) (A) (A) (A)
                 (A) (A) (A) (A) (A) (A) (A) (A) (A) (A) (A) (A)
                 (A) (A) (A) (A) (A) (A) (A) (A) (A) (A) (A) (A)
                 (A) (A) (A) (A) (A) (A) (A) (A) (A) (A) (A) (A)
                 (A) (A) (A) (A) (A) (A) (A) (A) (A) (A) (A) (A)
                 (A) (A) (A) (A) (A) (A) (A) (A) (A) (A) (A) (A)
                 (A) (A) (A) (A) (A) (A) (A) (A) (A) (A) (A) (A)
                 (A) (A) (A) (A) (A) (A) (A) (A) (A) (A) (A) (A)
                 (A) (A) (A) (A) (A) (A) (A) (A) (A) (A) (A) (A)
                 (A) (A) (A) (A) (A) (A) (A) (A) (A) (A) (A) (A)
                 (A) (A) (A) (A) (A) (A) (A) (A) (A) (A) (A) (A)
                 (A) (A) (A) (A) (A) (A) (A) (A) (A) (A) (A) (A)
                 (A) (A) (A) (A) (A) (A) (A) (A) (A) (A) (A) (A)
                 (A) (A) (A) (A) (A) (A) (A) (A) (A) (A) (A) (A)
                 (A) (A) (A) (A) (A) (A) (A) (A) (A) (A) (A) (A)
                 (A) (A) (A) (A) (A) (A) (A) (A) (A) (A) (A) (A)
                 (A) (A) (A) (A) (A) (A) (A) (A) (A) (A) (A) (A)
 The electronic state of the initial guess is 1-A.
 Requested convergence on RMS density matrix=1.00D-08 within 128 cycles.
 Requested convergence on MAX density matrix=1.00D-06.
 Requested convergence on             energy=1.00D-06.
 No special actions if energy rises.
 Error on total polarization charges =  0.05696
 SCF Done:  E(RB3LYP) =  -610.808999955     A.U. after   12 cycles
             Convg  =    0.4859D-08             -V/T =  2.0090
 SMD-CDS (non-electrostatic) energy       (kcal/mol) =       3.33
 (included in total energy above)

 **********************************************************************

            Population analysis using the SCF density.

 **********************************************************************

 Orbital symmetries:
       Occupied  (A) (A) (A) (A) (A) (A) (A) (A) (A) (A) (A) (A)
                 (A) (A) (A) (A) (A) (A) (A) (A) (A) (A) (A) (A)
                 (A) (A) (A) (A) (A) (A) (A) (A) (A) (A) (A) (A)
                 (A) (A) (A) (A) (A) (A) (A)
       Virtual   (A) (A) (A) (A) (A) (A) (A) (A) (A) (A) (A) (A)
                 (A) (A) (A) (A) (A) (A) (A) (A) (A) (A) (A) (A)
                 (A) (A) (A) (A) (A) (A) (A) (A) (A) (A) (A) (A)
                 (A) (A) (A) (A) (A) (A) (A) (A) (A) (A) (A) (A)
                 (A) (A) (A) (A) (A) (A) (A) (A) (A) (A) (A) (A)
                 (A) (A) (A) (A) (A) (A) (A) (A) (A) (A) (A) (A)
                 (A) (A) (A) (A) (A) (A) (A) (A) (A) (A) (A) (A)
                 (A) (A) (A) (A) (A) (A) (A) (A) (A) (A) (A) (A)
                 (A) (A) (A) (A) (A) (A) (A) (A) (A) (A) (A) (A)
                 (A) (A) (A) (A) (A) (A) (A) (A) (A) (A) (A) (A)
                 (A) (A) (A) (A) (A) (A) (A) (A) (A) (A) (A) (A)
                 (A) (A) (A) (A) (A) (A) (A) (A) (A) (A) (A) (A)
                 (A) (A) (A) (A) (A) (A) (A) (A) (A) (A) (A) (A)
                 (A) (A) (A) (A) (A) (A) (A) (A) (A) (A) (A) (A)
                 (A) (A) (A) (A) (A) (A) (A) (A) (A) (A) (A) (A)
                 (A) (A) (A) (A) (A) (A) (A) (A) (A) (A) (A) (A)
                 (A) (A) (A) (A) (A) (A) (A) (A) (A) (A) (A) (A)
                 (A) (A) (A) (A) (A) (A) (A) (A) (A) (A) (A) (A)
 The electronic state is 1-A.
 Alpha  occ. eigenvalues --  -19.18358 -19.17525 -19.17321 -19.16884 -19.16882
 Alpha  occ. eigenvalues --  -10.29316 -10.25143 -10.24982 -10.24590 -10.24410
 Alpha  occ. eigenvalues --  -10.24098  -1.11173  -1.05203  -1.03923  -1.02408
 Alpha  occ. eigenvalues --   -1.01051  -0.79568  -0.78381  -0.67915  -0.65155
 Alpha  occ. eigenvalues --   -0.62827  -0.58118  -0.54988  -0.54393  -0.52519
 Alpha  occ. eigenvalues --   -0.50023  -0.49142  -0.46710  -0.44752  -0.44088
 Alpha  occ. eigenvalues --   -0.43673  -0.42463  -0.40228  -0.38643  -0.37205
 Alpha  occ. eigenvalues --   -0.36303  -0.35382  -0.33519  -0.32284  -0.30254
 Alpha  occ. eigenvalues --   -0.29447  -0.27847  -0.26177
 Alpha virt. eigenvalues --    0.00622   0.01310   0.01952   0.02609   0.04043
 Alpha virt. eigenvalues --    0.04980   0.05158   0.05775   0.06161   0.07912
 Alpha virt. eigenvalues --    0.08428   0.09875   0.10200   0.10592   0.11610
 Alpha virt. eigenvalues --    0.12115   0.12940   0.13768   0.14055   0.14591
 Alpha virt. eigenvalues --    0.15257   0.15897   0.16435   0.16961   0.17447
 Alpha virt. eigenvalues --    0.17959   0.19076   0.19680   0.19936   0.21171
 Alpha virt. eigenvalues --    0.21661   0.22119   0.22401   0.23429   0.24166
 Alpha virt. eigenvalues --    0.24745   0.24910   0.25636   0.26994   0.27034
 Alpha virt. eigenvalues --    0.27462   0.27888   0.28558   0.28768   0.29900
 Alpha virt. eigenvalues --    0.30334   0.30787   0.31800   0.32827   0.33029
 Alpha virt. eigenvalues --    0.34540   0.34800   0.35131   0.35649   0.36272
 Alpha virt. eigenvalues --    0.37122   0.37399   0.37879   0.38795   0.39255
 Alpha virt. eigenvalues --    0.41125   0.41365   0.42814   0.44254   0.46697
 Alpha virt. eigenvalues --    0.48093   0.63563   0.65299   0.66876   0.67452
 Alpha virt. eigenvalues --    0.69463   0.70736   0.74608   0.76118   0.76663
 Alpha virt. eigenvalues --    0.78368   0.80327   0.82200   0.83915   0.85537
 Alpha virt. eigenvalues --    0.87520   0.88599   0.94376   0.95697   0.98067
 Alpha virt. eigenvalues --    1.00681   1.02976   1.03655   1.04289   1.06384
 Alpha virt. eigenvalues --    1.08626   1.09615   1.11500   1.12607   1.13444
 Alpha virt. eigenvalues --    1.17918   1.19943   1.20994   1.24812   1.26152
 Alpha virt. eigenvalues --    1.27210   1.28711   1.29288   1.31213   1.32567
 Alpha virt. eigenvalues --    1.33355   1.34264   1.35286   1.39239   1.40102
 Alpha virt. eigenvalues --    1.42407   1.43844   1.46636   1.48070   1.51571
 Alpha virt. eigenvalues --    1.54960   1.55773   1.55985   1.58825   1.59583
 Alpha virt. eigenvalues --    1.61905   1.64250   1.64627   1.65883   1.67391
 Alpha virt. eigenvalues --    1.69434   1.71423   1.73497   1.74852   1.78870
 Alpha virt. eigenvalues --    1.80409   1.83530   1.83873   1.85476   1.86797
 Alpha virt. eigenvalues --    1.89020   1.91489   1.93970   1.96707   1.97747
 Alpha virt. eigenvalues --    2.00883   2.01940   2.05995   2.06861   2.07787
 Alpha virt. eigenvalues --    2.09125   2.10069   2.13779   2.16159   2.17286
 Alpha virt. eigenvalues --    2.18939   2.20313   2.22765   2.24894   2.26677
 Alpha virt. eigenvalues --    2.30648   2.35057   2.38537   2.39168   2.41549
 Alpha virt. eigenvalues --    2.42579   2.44747   2.46862   2.49555   2.49625
 Alpha virt. eigenvalues --    2.53983   2.59190   2.59296   2.62554   2.63579
 Alpha virt. eigenvalues --    2.65479   2.66383   2.67006   2.69194   2.70866
 Alpha virt. eigenvalues --    2.72405   2.74488   2.76815   2.78263   2.79907
 Alpha virt. eigenvalues --    2.82753   2.84719   2.86349   2.88133   2.90508
 Alpha virt. eigenvalues --    2.93903   2.95541   2.96243   2.98910   2.99369
 Alpha virt. eigenvalues --    3.05172   3.09462   3.09753   3.13451   3.23753
 Alpha virt. eigenvalues --    3.34196   3.39432   3.40434   3.45781   3.48514
 Alpha virt. eigenvalues --    3.51219   3.52246   3.53364   3.55544   3.57273
 Alpha virt. eigenvalues --    4.27719   4.33254   4.38645   4.45257   4.49015
 Alpha virt. eigenvalues --    4.57851   4.61145   4.74105   4.81689   4.88496
 Alpha virt. eigenvalues --    5.00848
          Condensed to atoms (all electrons):
              1          2          3          4          5          6
     1  C    5.569167  -0.215413  -0.395411  -0.176062   0.190906   0.109546
     2  C   -0.215413   6.844189  -0.497047   0.241464   0.206428  -0.792381
     3  C   -0.395411  -0.497047   6.737988   0.102516  -1.075320   0.347390
     4  C   -0.176062   0.241464   0.102516   5.988013  -0.050796  -0.116808
     5  C    0.190906   0.206428  -1.075320  -0.050796   6.664172  -0.469296
     6  C    0.109546  -0.792381   0.347390  -0.116808  -0.469296   6.368432
     7  O   -0.052752   0.109334   0.260142  -0.053432  -0.057162  -0.080596
     8  O    0.165796  -0.133342   0.336226  -0.002925  -0.195787  -0.010131
     9  O    0.026357  -0.077643  -0.048878  -0.198787   0.067237   0.239015
    10  O   -0.005543   0.044443   0.022237   0.210552  -0.063849  -0.173141
    11  O    0.027586  -0.037031  -0.122779  -0.144514   0.240126   0.065883
    12  H    0.464110  -0.164010   0.011890  -0.041821   0.016404   0.072185
    13  H    0.405932  -0.003692  -0.016398   0.006023   0.002400  -0.016364
    14  H    0.000515   0.298756   0.029175   0.001200  -0.012147   0.025240
    15  H    0.015885   0.024417   0.339817   0.017856  -0.001335  -0.023409
    16  H   -0.004478  -0.026537   0.029333   0.349632  -0.058580  -0.003839
    17  H    0.009237  -0.028467  -0.061123  -0.132686   0.466236   0.033824
    18  H    0.022159  -0.025172  -0.019250  -0.058725   0.035242   0.347529
    19  H    0.006216  -0.039968   0.008281   0.028552  -0.010407   0.012268
    20  H    0.001336  -0.014067   0.016066   0.025330  -0.074681   0.047285
    21  H   -0.002341   0.006952  -0.040537   0.021186   0.033608  -0.011278
              7          8          9         10         11         12
     1  C   -0.052752   0.165796   0.026357  -0.005543   0.027586   0.464110
     2  C    0.109334  -0.133342  -0.077643   0.044443  -0.037031  -0.164010
     3  C    0.260142   0.336226  -0.048878   0.022237  -0.122779   0.011890
     4  C   -0.053432  -0.002925  -0.198787   0.210552  -0.144514  -0.041821
     5  C   -0.057162  -0.195787   0.067237  -0.063849   0.240126   0.016404
     6  C   -0.080596  -0.010131   0.239015  -0.173141   0.065883   0.072185
     7  O    8.364483  -0.054840   0.020131  -0.002317   0.007416   0.010364
     8  O   -0.054840   8.455209   0.002338  -0.001213   0.014803  -0.044312
     9  O    0.020131   0.002338   8.397569   0.012671  -0.001490  -0.000141
    10  O   -0.002317  -0.001213   0.012671   8.397992  -0.012712  -0.000217
    11  O    0.007416   0.014803  -0.001490  -0.012712   8.374033   0.000013
    12  H    0.010364  -0.044312  -0.000141  -0.000217   0.000013   0.534360
    13  H   -0.000893  -0.051455  -0.000127   0.000037   0.000065  -0.039231
    14  H   -0.035954   0.007448  -0.006997  -0.000470   0.000102   0.002262
    15  H   -0.043255  -0.045276   0.000576  -0.000652  -0.003971  -0.000266
    16  H   -0.000068   0.006929   0.007199  -0.038335   0.002642   0.000893
    17  H    0.004459   0.009745   0.005885   0.006447  -0.043870  -0.000019
    18  H    0.008665   0.000287  -0.040036   0.002555  -0.000539   0.000237
    19  H   -0.003190  -0.000107   0.247945  -0.000935   0.000049   0.000006
    20  H    0.000001   0.000011  -0.002100   0.234795   0.018075   0.000003
    21  H    0.000242  -0.000256   0.000168  -0.000262   0.246326  -0.000003
             13         14         15         16         17         18
     1  C    0.405932   0.000515   0.015885  -0.004478   0.009237   0.022159
     2  C   -0.003692   0.298756   0.024417  -0.026537  -0.028467  -0.025172
     3  C   -0.016398   0.029175   0.339817   0.029333  -0.061123  -0.019250
     4  C    0.006023   0.001200   0.017856   0.349632  -0.132686  -0.058725
     5  C    0.002400  -0.012147  -0.001335  -0.058580   0.466236   0.035242
     6  C   -0.016364   0.025240  -0.023409  -0.003839   0.033824   0.347529
     7  O   -0.000893  -0.035954  -0.043255  -0.000068   0.004459   0.008665
     8  O   -0.051455   0.007448  -0.045276   0.006929   0.009745   0.000287
     9  O   -0.000127  -0.006997   0.000576   0.007199   0.005885  -0.040036
    10  O    0.000037  -0.000470  -0.000652  -0.038335   0.006447   0.002555
    11  O    0.000065   0.000102  -0.003971   0.002642  -0.043870  -0.000539
    12  H   -0.039231   0.002262  -0.000266   0.000893  -0.000019   0.000237
    13  H    0.550069  -0.003896   0.000311   0.000140   0.000023  -0.000017
    14  H   -0.003896   0.518135  -0.000060  -0.000084  -0.000020  -0.002671
    15  H    0.000311  -0.000060   0.549188  -0.000247  -0.002461   0.000023
    16  H    0.000140  -0.000084  -0.000247   0.562739   0.004886  -0.005484
    17  H    0.000023  -0.000020  -0.002461   0.004886   0.557031  -0.000111
    18  H   -0.000017  -0.002671   0.000023  -0.005484  -0.000111   0.572674
    19  H   -0.000007   0.003450  -0.000002  -0.000163  -0.000050  -0.005906
    20  H    0.000000   0.000004  -0.000003  -0.006063  -0.001354  -0.000102
    21  H    0.000000   0.000000   0.001925   0.000131  -0.006838   0.000004
             19         20         21
     1  C    0.006216   0.001336  -0.002341
     2  C   -0.039968  -0.014067   0.006952
     3  C    0.008281   0.016066  -0.040537
     4  C    0.028552   0.025330   0.021186
     5  C   -0.010407  -0.074681   0.033608
     6  C    0.012268   0.047285  -0.011278
     7  O   -0.003190   0.000001   0.000242
     8  O   -0.000107   0.000011  -0.000256
     9  O    0.247945  -0.002100   0.000168
    10  O   -0.000935   0.234795  -0.000262
    11  O    0.000049   0.018075   0.246326
    12  H    0.000006   0.000003  -0.000003
    13  H   -0.000007   0.000000   0.000000
    14  H    0.003450   0.000004   0.000000
    15  H   -0.000002  -0.000003   0.001925
    16  H   -0.000163  -0.006063   0.000131
    17  H   -0.000050  -0.001354  -0.006838
    18  H   -0.005906  -0.000102   0.000004
    19  H    0.336103   0.000010   0.000000
    20  H    0.000010   0.349311  -0.000991
    21  H    0.000000  -0.000991   0.333572
 Mulliken atomic charges:
              1
     1  C   -0.162747
     2  C    0.278788
     3  C    0.035683
     4  C   -0.015769
     5  C    0.146603
     6  C    0.028644
     7  O   -0.400780
     8  O   -0.459147
     9  O   -0.650895
    10  O   -0.632082
    11  O   -0.630214
    12  H    0.177294
    13  H    0.167081
    14  H    0.176010
    15  H    0.170938
    16  H    0.179353
    17  H    0.179225
    18  H    0.168636
    19  H    0.417856
    20  H    0.407132
    21  H    0.418392
 Sum of Mulliken atomic charges =   0.00000
 Mulliken charges with hydrogens summed into heavy atoms:
              1
     1  C    0.181628
     2  C    0.454798
     3  C    0.206621
     4  C    0.163585
     5  C    0.325828
     6  C    0.197280
     7  O   -0.400780
     8  O   -0.459147
     9  O   -0.233039
    10  O   -0.224950
    11  O   -0.211823
 Sum of Mulliken charges with hydrogens summed into heavy atoms =   0.00000
 Electronic spatial extent (au):  <R**2>=           1434.3538
 Charge=              0.0000 electrons
 Dipole moment (field-independent basis, Debye):
    X=              2.5405    Y=              0.8066    Z=              0.3747  Tot=              2.6917
 Quadrupole moment (field-independent basis, Debye-Ang):
   XX=            -68.8641   YY=            -57.3506   ZZ=            -63.4412
   XY=             14.4223   XZ=              4.4560   YZ=             10.0722
 Traceless Quadrupole moment (field-independent basis, Debye-Ang):
   XX=             -5.6455   YY=              5.8681   ZZ=             -0.2226
   XY=             14.4223   XZ=              4.4560   YZ=             10.0722
 Octapole moment (field-independent basis, Debye-Ang**2):
  XXX=              4.8901  YYY=             23.3529  ZZZ=              3.5526  XYY=              4.3960
  XXY=            -14.2658  XXZ=              2.9483  XZZ=             -3.5616  YZZ=             -8.6301
  YYZ=            -24.7055  XYZ=             -1.3010
 Hexadecapole moment (field-independent basis, Debye-Ang**3):
 XXXX=           -776.3070 YYYY=           -539.7028 ZZZZ=           -278.3376 XXXY=             73.2343
 XXXZ=             13.1794 YYYX=             55.2078 YYYZ=             29.8960 ZZZX=             12.1159
 ZZZY=             11.5932 XXYY=           -258.7677 XXZZ=           -182.5677 YYZZ=           -142.2309
 XXYZ=             10.0421 YYXZ=              4.4316 ZZXY=             11.5731
 N-N= 7.262144523061D+02 E-N=-2.883100523946D+03  KE= 6.053408729759D+02

 Test job not archived.
 1\1\GINC-COMPUTE-10-0\SP\RB3LYP\6-31+G(d,p)\C6H10O5\ASAROTTI.IQUIR\15-
 Apr-2019\0\\# B3LYP/6-31+G** test scrf=(pcm,solvent=water,smd,dovacuum
 )\\comment\\0,1\C,0,1.882299,0.026731,1.056966\C,0,1.27377,1.009327,0.
 043644\C,0,0.827026,-1.03073,-0.695998\C,0,-1.014257,0.121174,0.55233\
 C,0,-0.700739,-0.919465,-0.527298\C,0,-0.188072,1.401753,0.353641\O,0,
 1.307754,0.217078,-1.158535\O,0,1.474867,-1.262386,0.556889\O,0,-0.750
 478,2.139746,-0.724338\O,0,-2.399561,0.430721,0.597114\O,0,-1.307851,-
 2.136181,-0.095133\H,0,1.511468,0.162891,2.07792\H,0,2.975937,0.084677
 ,1.060916\H,0,1.88892,1.896657,-0.122911\H,0,1.116003,-1.816556,-1.399
 935\H,0,-0.705663,-0.321896,1.510265\H,0,-1.122224,-0.589768,-1.485434
 \H,0,-0.215132,1.9933,1.281628\H,0,-0.234969,2.956981,-0.820028\H,0,-2
 .849311,-0.429247,0.661553\H,0,-1.443031,-2.701603,-0.871654\\Version=
 EM64L-G09RevC.01\State=1-A\HF=-610.809\RMSD=4.859e-09\Dipole=0.9995091
 ,0.3173528,0.1474317\Quadrupole=-4.1972847,4.3627581,-0.1654734,10.722
 6614,3.3129,7.4884428\PG=C01 [X(C6H10O5)]\\@


 THE VALUE OF PHILOSOPHY IS, IN FACT, TO BE SOUGHT LARGELY IN ITS
 VERY UNCERTAINTY.  THE MAN WHO HAS NO TINCTURE OF PHILOSOPHY GOES
 THROUGH LIFE IMPRISONED IN THE PREJUDICES DERIVED FROM COMMON SENSE,
 FROM THE HABITUAL BELIEFS OF HIS AGE OR HIS NATION, AND FROM
 CONVICTIONS WHICH HAVE GROWN UP IN HIS MIND WITHOUT THE CO-OPERATION
 OR CONSENT OF HIS DELIBERATE REASON.  TO SUCH A MAN THE WORLD TENDS
 TO BE DEFINITE, FINITE, OBVIOUS; COMMON OBJECTS ROUSE NO QUESTIONS,
 AND UNFAMILIAR POSSIBILITIES ARE CONTEMPTUOUSLY REJECTED.

                             -- BERTRAND RUSSELL
 Job cpu time:  0 days  0 hours 11 minutes 39.9 seconds.
 File lengths (MBytes):  RWF=     56 Int=      0 D2E=      0 Chk=      4 Scr=      1
 Normal termination of Gaussian 09 at Mon Apr 15 18:53:34 2019.
