 Entering Gaussian System, Link 0=g09
 Input=/home/asarotti.iquir/SCF3/08_SRR_Levo16_OPTB_energy_b3lyp_smd.gjc
 Output=/home/asarotti.iquir/SCF3/08_SRR_Levo16_OPTB_energy_b3lyp_smd.log
 Initial command:
 /share/apps/Gaussian09/EM64T.SSE4.2-enabled/g09/l1.exe /tmp/Gau-10271.inp -scrdir=/tmp/
 Entering Link 1 = /share/apps/Gaussian09/EM64T.SSE4.2-enabled/g09/l1.exe PID=     10272.
  
 Copyright (c) 1988,1990,1992,1993,1995,1998,2003,2009,2011,
            Gaussian, Inc.  All Rights Reserved.
  
 This is part of the Gaussian(R) 09 program.  It is based on
 the Gaussian(R) 03 system (copyright 2003, Gaussian, Inc.),
 the Gaussian(R) 98 system (copyright 1998, Gaussian, Inc.),
 the Gaussian(R) 94 system (copyright 1995, Gaussian, Inc.),
 the Gaussian 92(TM) system (copyright 1992, Gaussian, Inc.),
 the Gaussian 90(TM) system (copyright 1990, Gaussian, Inc.),
 the Gaussian 88(TM) system (copyright 1988, Gaussian, Inc.),
 the Gaussian 86(TM) system (copyright 1986, Carnegie Mellon
 University), and the Gaussian 82(TM) system (copyright 1983,
 Carnegie Mellon University). Gaussian is a federally registered
 trademark of Gaussian, Inc.
  
 This software contains proprietary and confidential information,
 including trade secrets, belonging to Gaussian, Inc.
  
 This software is provided under written license and may be
 used, copied, transmitted, or stored only in accord with that
 written license.
  
 The following legend is applicable only to US Government
 contracts under FAR:
  
                    RESTRICTED RIGHTS LEGEND
  
 Use, reproduction and disclosure by the US Government is
 subject to restrictions as set forth in subparagraphs (a)
 and (c) of the Commercial Computer Software - Restricted
 Rights clause in FAR 52.227-19.
  
 Gaussian, Inc.
 340 Quinnipiac St., Bldg. 40, Wallingford CT 06492
  
  
 ---------------------------------------------------------------
 Warning -- This program may not be used in any manner that
 competes with the business of Gaussian, Inc. or will provide
 assistance to any competitor of Gaussian, Inc.  The licensee
 of this program is prohibited from giving any competitor of
 Gaussian, Inc. access to this program.  By using this program,
 the user acknowledges that Gaussian, Inc. is engaged in the
 business of creating and licensing software in the field of
 computational chemistry and represents and warrants to the
 licensee that it is not a competitor of Gaussian, Inc. and that
 it will not use this program in any manner prohibited above.
 ---------------------------------------------------------------
  

 Cite this work as:
 Gaussian 09, Revision C.01,
 M. J. Frisch, G. W. Trucks, H. B. Schlegel, G. E. Scuseria, 
 M. A. Robb, J. R. Cheeseman, G. Scalmani, V. Barone, B. Mennucci, 
 G. A. Petersson, H. Nakatsuji, M. Caricato, X. Li, H. P. Hratchian, 
 A. F. Izmaylov, J. Bloino, G. Zheng, J. L. Sonnenberg, M. Hada, 
 M. Ehara, K. Toyota, R. Fukuda, J. Hasegawa, M. Ishida, T. Nakajima, 
 Y. Honda, O. Kitao, H. Nakai, T. Vreven, J. A. Montgomery, Jr., 
 J. E. Peralta, F. Ogliaro, M. Bearpark, J. J. Heyd, E. Brothers, 
 K. N. Kudin, V. N. Staroverov, T. Keith, R. Kobayashi, J. Normand, 
 K. Raghavachari, A. Rendell, J. C. Burant, S. S. Iyengar, J. Tomasi, 
 M. Cossi, N. Rega, J. M. Millam, M. Klene, J. E. Knox, J. B. Cross, 
 V. Bakken, C. Adamo, J. Jaramillo, R. Gomperts, R. E. Stratmann, 
 O. Yazyev, A. J. Austin, R. Cammi, C. Pomelli, J. W. Ochterski, 
 R. L. Martin, K. Morokuma, V. G. Zakrzewski, G. A. Voth, 
 P. Salvador, J. J. Dannenberg, S. Dapprich, A. D. Daniels, 
 O. Farkas, J. B. Foresman, J. V. Ortiz, J. Cioslowski, 
 and D. J. Fox, Gaussian, Inc., Wallingford CT, 2010.
 
 ******************************************
 Gaussian 09:  EM64L-G09RevC.01 23-Sep-2011
                15-Apr-2019 
 ******************************************
 %nprocshared=4
 Will use up to    4 processors via shared memory.
 -----------------------------------------------------------
 # B3LYP/6-31+G** test scrf=(pcm,solvent=water,smd,dovacuum)
 -----------------------------------------------------------
 1/38=1/1;
 2/12=2,17=6,18=5,40=1/2;
 3/5=1,6=6,7=111,11=2,16=1,25=1,30=1,70=32101,72=1,74=-5/1,2,3;
 4//1;
 5/5=2,38=5,53=1/2;
 6/7=2,8=2,9=2,10=2,28=1/1;
 99/5=1,9=1/99;
 -------
 comment
 -------
 Charge =  0 Multiplicity = 1
 Symbolic Z-Matrix:
 6                     1.23212  -1.69934  -0.45417 
 6                    -0.11557  -1.40293   0.21011 
 6                     1.25133   0.2302    0.82188 
 6                    -0.92483   0.97981  -0.27766 
 6                     0.50788   1.4014    0.12325 
 6                    -1.0349   -0.51592  -0.67089 
 8                     0.3326   -0.67906   1.37673 
 8                     1.98878  -0.50304  -0.17675 
 8                    -2.4168   -0.84227  -0.52294 
 8                    -1.76825   1.25972   0.83324 
 8                     1.26509   1.88461  -0.97414 
 1                     1.17728  -1.84783  -1.5352 
 1                     1.72624  -2.5588    0.01081 
 1                    -0.63922  -2.29635   0.55572 
 1                     1.94162   0.56461   1.59892 
 1                    -1.22141   1.58842  -1.14434 
 1                     0.39276   2.22647   0.83389 
 1                    -0.74099  -0.62813  -1.7229 
 1                    -2.56222  -1.75122  -0.82921 
 1                    -2.54018   0.67437   0.73201 
 1                     1.7585    1.10955  -1.30399 
 
                          Input orientation:                          
 ---------------------------------------------------------------------
 Center     Atomic      Atomic             Coordinates (Angstroms)
 Number     Number       Type             X           Y           Z
 ---------------------------------------------------------------------
      1          6           0        1.232124   -1.699340   -0.454171
      2          6           0       -0.115571   -1.402926    0.210106
      3          6           0        1.251326    0.230200    0.821878
      4          6           0       -0.924827    0.979808   -0.277663
      5          6           0        0.507880    1.401399    0.123253
      6          6           0       -1.034896   -0.515921   -0.670888
      7          8           0        0.332600   -0.679063    1.376732
      8          8           0        1.988784   -0.503041   -0.176746
      9          8           0       -2.416799   -0.842271   -0.522939
     10          8           0       -1.768248    1.259717    0.833235
     11          8           0        1.265089    1.884605   -0.974136
     12          1           0        1.177277   -1.847827   -1.535195
     13          1           0        1.726239   -2.558801    0.010814
     14          1           0       -0.639224   -2.296348    0.555718
     15          1           0        1.941622    0.564614    1.598918
     16          1           0       -1.221413    1.588420   -1.144336
     17          1           0        0.392758    2.226468    0.833888
     18          1           0       -0.740994   -0.628127   -1.722897
     19          1           0       -2.562215   -1.751217   -0.829205
     20          1           0       -2.540181    0.674373    0.732010
     21          1           0        1.758502    1.109545   -1.303989
 ---------------------------------------------------------------------
                    Distance matrix (angstroms):
                    1          2          3          4          5
     1  C    0.000000
     2  C    1.531472   0.000000
     3  C    2.313395   2.215801   0.000000
     4  C    3.444042   2.563247   2.550793   0.000000
     5  C    3.236129   2.874104   1.553221   1.546325   0.000000
     6  C    2.566481   1.551801   2.830523   1.550466   2.585911
     7  O    2.280858   1.444248   1.406655   2.658947   2.435211
     8  O    1.442439   2.321154   1.441782   3.270803   2.431043
     9  O    3.748858   2.479383   4.051403   2.367723   3.742374
    10  O    4.406321   3.195199   3.190276   1.422604   2.388495
    11  O    3.621617   3.757195   2.441907   2.469709   1.418138
    12  H    1.092552   2.217086   3.143163   3.741089   3.708910
    13  H    1.095004   2.183582   2.943110   4.430928   4.144904
    14  H    2.208673   1.091725   3.166775   3.392535   3.895665
    15  H    3.137523   3.167342   1.091848   3.451155   2.221129
    16  H    4.159992   3.464903   3.438778   1.099770   2.152258
    17  H    4.216112   3.717526   2.173101   2.127378   1.094986
    18  H    2.578829   2.174389   3.343941   2.169781   3.014454
    19  H    3.813181   2.680959   4.603823   3.231677   4.502405
    20  H    4.612139   3.235164   3.818493   1.929274   3.192151
    21  H    2.981459   3.480969   2.355798   2.875836   1.919962
                    6          7          8          9         10
     6  C    0.000000
     7  O    2.467673   0.000000
     8  O    3.063818   2.277548   0.000000
     9  O    1.427603   3.345830   4.432165   0.000000
    10  O    2.439894   2.909952   4.271144   2.584217   0.000000
    11  O    3.338325   3.601182   2.619240   4.603882   3.585834
    12  H    2.722996   3.249432   2.076626   3.866935   4.893098
    13  H    3.501706   2.709497   2.080927   4.516208   5.241078
    14  H    2.197962   2.057697   3.264794   2.537245   3.741298
    15  H    3.896054   2.045740   2.072461   5.047518   3.851308
    16  H    2.164993   3.729909   3.951684   2.779090   2.077946
    17  H    3.438494   2.956418   3.319473   4.376271   2.367394
    18  H    1.098040   3.280686   3.139732   2.072216   3.339613
    19  H    1.970717   3.794157   4.763952   0.970117   3.529846
    20  H    2.377142   3.240421   4.766935   1.972392   0.974040
    21  H    3.293331   3.524001   1.980944   4.674694   4.126529
                   11         12         13         14         15
    11  O    0.000000
    12  H    3.775387   0.000000
    13  H    4.574565   1.788012   0.000000
    14  H    4.842234   2.805845   2.441560   0.000000
    15  H    2.969963   4.028245   3.510582   3.991758   0.000000
    16  H    2.509858   4.208833   5.217515   4.280251   4.310268
    17  H    2.036365   4.777856   5.035317   4.647390   2.397084
    18  H    3.301338   2.280935   3.580572   2.825846   4.433228
    19  H    5.280953   3.806778   4.443947   2.431681   5.616351
    20  H    4.342312   5.032018   5.401470   3.531275   4.566195
    21  H    0.976206   3.022801   3.896987   4.561547   2.959282
                   16         17         18         19         20
    16  H    0.000000
    17  H    2.631734   0.000000
    18  H    2.340644   3.996405   0.000000
    19  H    3.612511   5.226827   2.318806   0.000000
    20  H    2.468867   3.319866   3.310611   2.884678   0.000000
    21  H    3.022367   2.771875   3.072860   5.203650   4.776331
                   21
    21  H    0.000000
 Stoichiometry    C6H10O5
 Framework group  C1[X(C6H10O5)]
 Deg. of freedom    57
 Full point group                 C1      NOp   1
 Largest Abelian subgroup         C1      NOp   1
 Largest concise Abelian subgroup C1      NOp   1
                         Standard orientation:                         
 ---------------------------------------------------------------------
 Center     Atomic      Atomic             Coordinates (Angstroms)
 Number     Number       Type             X           Y           Z
 ---------------------------------------------------------------------
      1          6           0        1.232123   -1.699340   -0.454171
      2          6           0       -0.115572   -1.402926    0.210106
      3          6           0        1.251326    0.230199    0.821878
      4          6           0       -0.924827    0.979808   -0.277663
      5          6           0        0.507881    1.401399    0.123253
      6          6           0       -1.034896   -0.515921   -0.670888
      7          8           0        0.332600   -0.679063    1.376732
      8          8           0        1.988784   -0.503042   -0.176746
      9          8           0       -2.416799   -0.842270   -0.522939
     10          8           0       -1.768247    1.259718    0.833235
     11          8           0        1.265090    1.884604   -0.974136
     12          1           0        1.177276   -1.847827   -1.535195
     13          1           0        1.726238   -2.558802    0.010814
     14          1           0       -0.639225   -2.296348    0.555718
     15          1           0        1.941622    0.564613    1.598918
     16          1           0       -1.221412    1.588421   -1.144336
     17          1           0        0.392759    2.226468    0.833888
     18          1           0       -0.740994   -0.628127   -1.722897
     19          1           0       -2.562216   -1.751216   -0.829205
     20          1           0       -2.540181    0.674374    0.732010
     21          1           0        1.758503    1.109544   -1.303989
 ---------------------------------------------------------------------
 Rotational constants (GHZ):      1.5658409      1.2129535      0.9103619
 Standard basis: 6-31+G(d,p) (6D, 7F)
 There are   259 symmetry adapted basis functions of A   symmetry.
 Integral buffers will be    131072 words long.
 Raffenetti 2 integral format.
 Two-electron integral symmetry is turned on.
   259 basis functions,   422 primitive gaussians,   259 cartesian basis functions
    43 alpha electrons       43 beta electrons
       nuclear repulsion energy       728.3139600015 Hartrees.
 NAtoms=   21 NActive=   21 NUniq=   21 SFac= 1.00D+00 NAtFMM=   60 NAOKFM=F Big=F
 ------------------------------------------------------------------------------
 Polarizable Continuum Model (PCM)
 =================================
 Model                : C-PCM.
 Atomic radii         : SMD-Coulomb.
 Polarization charges : Total charges.
 Charge compensation  : None.
 Solution method      : Matrix inversion.
 Cavity type          : VdW (van der Waals Surface) (Alpha=1.000).
 Cavity algorithm     : GePol (No added spheres)
                        Default sphere list used, NSphG=   21.
                        Lebedev-Laikov grids with approx.  5.0 points / Ang**2.
                        Smoothing algorithm: Karplus/York (Gamma=1.0000).
                        Polarization charges: spherical gaussians, with
                                              point-specific exponents (IZeta= 3).
                        Self-potential: point-specific (ISelfS= 7).
                        Self-field    : sphere-specific E.n sum rule (ISelfD= 2).
 Solvent              : Water, Eps=  78.355300 Eps(inf)=   1.777849
 ------------------------------------------------------------------------------
 ------------------------------------------------------------------------------
 Atomic radii for non-electrostatic terms: SMD-CDS.
 ------------------------------------------------------------------------------
 Nuclear repulsion after PCM non-electrostatic terms =      728.3189700563 Hartrees.
 One-electron integrals computed using PRISM.
 NBasis=   259 RedAO= T  NBF=   259
 NBsUse=   259 1.00D-06 NBFU=   259
 Harris functional with IExCor=  402 diagonalized for initial guess.
 ExpMin= 4.38D-02 ExpMax= 5.48D+03 ExpMxC= 8.25D+02 IAcc=2 IRadAn=         4 AccDes= 0.00D+00
 HarFok:  IExCor=  402 AccDes= 0.00D+00 IRadAn=         4 IDoV= 1
 ScaDFX=  1.000000  1.000000  1.000000  1.000000
 FoFCou: FMM=F IPFlag=           0 FMFlag=      100000 FMFlg1=           0
         NFxFlg=           0 DoJE=T BraDBF=F KetDBF=T FulRan=T
         Omega=  0.000000  0.000000  1.000000  0.000000  0.000000 ICntrl=     500 IOpCl=  0
         NMat0=    1 NMatS0=    1 NMatT0=    0 NMatD0=    1 NMtDS0=    0 NMtDT0=    0
         I1Cent=           4 NGrid=           0.
 Petite list used in FoFCou.
 Initial guess orbital symmetries:
       Occupied  (A) (A) (A) (A) (A) (A) (A) (A) (A) (A) (A) (A)
                 (A) (A) (A) (A) (A) (A) (A) (A) (A) (A) (A) (A)
                 (A) (A) (A) (A) (A) (A) (A) (A) (A) (A) (A) (A)
                 (A) (A) (A) (A) (A) (A) (A)
       Virtual   (A) (A) (A) (A) (A) (A) (A) (A) (A) (A) (A) (A)
                 (A) (A) (A) (A) (A) (A) (A) (A) (A) (A) (A) (A)
                 (A) (A) (A) (A) (A) (A) (A) (A) (A) (A) (A) (A)
                 (A) (A) (A) (A) (A) (A) (A) (A) (A) (A) (A) (A)
                 (A) (A) (A) (A) (A) (A) (A) (A) (A) (A) (A) (A)
                 (A) (A) (A) (A) (A) (A) (A) (A) (A) (A) (A) (A)
                 (A) (A) (A) (A) (A) (A) (A) (A) (A) (A) (A) (A)
                 (A) (A) (A) (A) (A) (A) (A) (A) (A) (A) (A) (A)
                 (A) (A) (A) (A) (A) (A) (A) (A) (A) (A) (A) (A)
                 (A) (A) (A) (A) (A) (A) (A) (A) (A) (A) (A) (A)
                 (A) (A) (A) (A) (A) (A) (A) (A) (A) (A) (A) (A)
                 (A) (A) (A) (A) (A) (A) (A) (A) (A) (A) (A) (A)
                 (A) (A) (A) (A) (A) (A) (A) (A) (A) (A) (A) (A)
                 (A) (A) (A) (A) (A) (A) (A) (A) (A) (A) (A) (A)
                 (A) (A) (A) (A) (A) (A) (A) (A) (A) (A) (A) (A)
                 (A) (A) (A) (A) (A) (A) (A) (A) (A) (A) (A) (A)
                 (A) (A) (A) (A) (A) (A) (A) (A) (A) (A) (A) (A)
                 (A) (A) (A) (A) (A) (A) (A) (A) (A) (A) (A) (A)
 The electronic state of the initial guess is 1-A.
 Requested convergence on RMS density matrix=1.00D-08 within 128 cycles.
 Requested convergence on MAX density matrix=1.00D-06.
 Requested convergence on             energy=1.00D-06.
 No special actions if energy rises.
 Error on total polarization charges =  0.05801
 SCF Done:  E(RB3LYP) =  -610.801547831     A.U. after   12 cycles
             Convg  =    0.4552D-08             -V/T =  2.0090
 SMD-CDS (non-electrostatic) energy       (kcal/mol) =       3.14
 (included in total energy above)

 **********************************************************************

            Population analysis using the SCF density.

 **********************************************************************

 Orbital symmetries:
       Occupied  (A) (A) (A) (A) (A) (A) (A) (A) (A) (A) (A) (A)
                 (A) (A) (A) (A) (A) (A) (A) (A) (A) (A) (A) (A)
                 (A) (A) (A) (A) (A) (A) (A) (A) (A) (A) (A) (A)
                 (A) (A) (A) (A) (A) (A) (A)
       Virtual   (A) (A) (A) (A) (A) (A) (A) (A) (A) (A) (A) (A)
                 (A) (A) (A) (A) (A) (A) (A) (A) (A) (A) (A) (A)
                 (A) (A) (A) (A) (A) (A) (A) (A) (A) (A) (A) (A)
                 (A) (A) (A) (A) (A) (A) (A) (A) (A) (A) (A) (A)
                 (A) (A) (A) (A) (A) (A) (A) (A) (A) (A) (A) (A)
                 (A) (A) (A) (A) (A) (A) (A) (A) (A) (A) (A) (A)
                 (A) (A) (A) (A) (A) (A) (A) (A) (A) (A) (A) (A)
                 (A) (A) (A) (A) (A) (A) (A) (A) (A) (A) (A) (A)
                 (A) (A) (A) (A) (A) (A) (A) (A) (A) (A) (A) (A)
                 (A) (A) (A) (A) (A) (A) (A) (A) (A) (A) (A) (A)
                 (A) (A) (A) (A) (A) (A) (A) (A) (A) (A) (A) (A)
                 (A) (A) (A) (A) (A) (A) (A) (A) (A) (A) (A) (A)
                 (A) (A) (A) (A) (A) (A) (A) (A) (A) (A) (A) (A)
                 (A) (A) (A) (A) (A) (A) (A) (A) (A) (A) (A) (A)
                 (A) (A) (A) (A) (A) (A) (A) (A) (A) (A) (A) (A)
                 (A) (A) (A) (A) (A) (A) (A) (A) (A) (A) (A) (A)
                 (A) (A) (A) (A) (A) (A) (A) (A) (A) (A) (A) (A)
                 (A) (A) (A) (A) (A) (A) (A) (A) (A) (A) (A) (A)
 The electronic state is 1-A.
 Alpha  occ. eigenvalues --  -19.18550 -19.18071 -19.17491 -19.16707 -19.16314
 Alpha  occ. eigenvalues --  -10.29627 -10.25098 -10.24999 -10.24519 -10.24463
 Alpha  occ. eigenvalues --  -10.24054  -1.11453  -1.05386  -1.03928  -1.02218
 Alpha  occ. eigenvalues --   -1.01106  -0.79294  -0.77464  -0.68334  -0.65784
 Alpha  occ. eigenvalues --   -0.62629  -0.57583  -0.55523  -0.53917  -0.53348
 Alpha  occ. eigenvalues --   -0.50843  -0.47894  -0.45767  -0.45344  -0.45010
 Alpha  occ. eigenvalues --   -0.42638  -0.41229  -0.40513  -0.38388  -0.38233
 Alpha  occ. eigenvalues --   -0.36602  -0.35096  -0.34613  -0.31779  -0.30053
 Alpha  occ. eigenvalues --   -0.29687  -0.27918  -0.25981
 Alpha virt. eigenvalues --    0.00752   0.01112   0.02552   0.02942   0.04000
 Alpha virt. eigenvalues --    0.04598   0.04896   0.05296   0.05985   0.08394
 Alpha virt. eigenvalues --    0.09307   0.09473   0.09939   0.10978   0.11391
 Alpha virt. eigenvalues --    0.12260   0.12451   0.13440   0.13795   0.14361
 Alpha virt. eigenvalues --    0.15173   0.15936   0.16271   0.16720   0.17852
 Alpha virt. eigenvalues --    0.18155   0.18783   0.19049   0.20401   0.20730
 Alpha virt. eigenvalues --    0.21710   0.21791   0.22894   0.23292   0.23993
 Alpha virt. eigenvalues --    0.24614   0.24757   0.25487   0.25761   0.26433
 Alpha virt. eigenvalues --    0.27667   0.28336   0.29041   0.29504   0.29863
 Alpha virt. eigenvalues --    0.30629   0.31468   0.31872   0.32650   0.33342
 Alpha virt. eigenvalues --    0.34406   0.35169   0.35506   0.36082   0.36763
 Alpha virt. eigenvalues --    0.37033   0.37956   0.38690   0.39299   0.39623
 Alpha virt. eigenvalues --    0.40556   0.42560   0.43510   0.44381   0.47792
 Alpha virt. eigenvalues --    0.49179   0.62879   0.66714   0.67812   0.69724
 Alpha virt. eigenvalues --    0.71844   0.72256   0.74366   0.75044   0.77966
 Alpha virt. eigenvalues --    0.78432   0.80709   0.81870   0.83087   0.84869
 Alpha virt. eigenvalues --    0.86313   0.90228   0.90839   0.94356   0.97623
 Alpha virt. eigenvalues --    0.99605   1.01595   1.03403   1.04466   1.06006
 Alpha virt. eigenvalues --    1.07686   1.08626   1.10716   1.11421   1.13600
 Alpha virt. eigenvalues --    1.18871   1.20684   1.23140   1.25338   1.26235
 Alpha virt. eigenvalues --    1.27014   1.28912   1.29616   1.30926   1.31611
 Alpha virt. eigenvalues --    1.34315   1.35499   1.36842   1.37563   1.41009
 Alpha virt. eigenvalues --    1.41976   1.44066   1.46408   1.47753   1.49283
 Alpha virt. eigenvalues --    1.53075   1.53195   1.55388   1.57389   1.58259
 Alpha virt. eigenvalues --    1.60476   1.63520   1.63993   1.66591   1.68616
 Alpha virt. eigenvalues --    1.69841   1.71218   1.74161   1.76162   1.77546
 Alpha virt. eigenvalues --    1.80307   1.81337   1.83676   1.86883   1.87695
 Alpha virt. eigenvalues --    1.90064   1.92436   1.94846   1.95994   1.97090
 Alpha virt. eigenvalues --    1.98969   1.99869   2.04036   2.04339   2.06602
 Alpha virt. eigenvalues --    2.07192   2.12513   2.12727   2.14045   2.16578
 Alpha virt. eigenvalues --    2.18988   2.21288   2.25489   2.27805   2.32399
 Alpha virt. eigenvalues --    2.33761   2.35803   2.37749   2.40680   2.41869
 Alpha virt. eigenvalues --    2.43596   2.48439   2.49649   2.52565   2.55025
 Alpha virt. eigenvalues --    2.55812   2.59462   2.59880   2.62818   2.63755
 Alpha virt. eigenvalues --    2.64511   2.66509   2.66977   2.69081   2.70889
 Alpha virt. eigenvalues --    2.71362   2.72662   2.73446   2.74296   2.77117
 Alpha virt. eigenvalues --    2.80205   2.84094   2.86234   2.86989   2.90896
 Alpha virt. eigenvalues --    2.93804   2.95817   2.98282   3.00260   3.03565
 Alpha virt. eigenvalues --    3.05650   3.08178   3.11948   3.13326   3.18298
 Alpha virt. eigenvalues --    3.32789   3.41032   3.42869   3.44119   3.47624
 Alpha virt. eigenvalues --    3.49442   3.51353   3.52840   3.57685   3.59103
 Alpha virt. eigenvalues --    4.27047   4.28716   4.36082   4.44927   4.50634
 Alpha virt. eigenvalues --    4.55702   4.63636   4.79939   4.88560   4.92061
 Alpha virt. eigenvalues --    5.02873
          Condensed to atoms (all electrons):
              1          2          3          4          5          6
     1  C    5.444958   0.118744  -0.313497   0.134450  -0.014500  -0.238996
     2  C    0.118744   6.409426  -0.593822  -0.091835   0.199715  -0.357701
     3  C   -0.313497  -0.593822   6.082216  -0.379538  -0.110786   0.506993
     4  C    0.134450  -0.091835  -0.379538   6.302469  -0.243148  -0.201952
     5  C   -0.014500   0.199715  -0.110786  -0.243148   6.295416  -0.321096
     6  C   -0.238996  -0.357701   0.506993  -0.201952  -0.321096   6.235136
     7  O   -0.038633   0.104159   0.258304   0.099514  -0.205788  -0.134442
     8  O    0.159553  -0.165525   0.264452   0.023031  -0.215965   0.070683
     9  O    0.017537  -0.058619  -0.023033  -0.116470   0.034607   0.176089
    10  O    0.004869   0.011581   0.003800   0.144074  -0.070454  -0.037109
    11  O    0.016498  -0.002085  -0.103598  -0.111976   0.246641   0.012832
    12  H    0.452488  -0.115984   0.024445   0.000463   0.003973   0.002925
    13  H    0.414551  -0.023042  -0.024756   0.001780   0.000498   0.002300
    14  H   -0.000268   0.328830   0.015165   0.033511  -0.004863  -0.035638
    15  H    0.017623   0.010376   0.348715   0.025795  -0.039919  -0.001589
    16  H   -0.000678   0.025491   0.013200   0.349032  -0.055821  -0.018859
    17  H    0.000080  -0.025183  -0.012853  -0.059146   0.392814   0.043926
    18  H    0.037036  -0.118616  -0.002066  -0.039479   0.003105   0.415551
    19  H   -0.002487  -0.036456   0.000969   0.020806  -0.001242   0.024018
    20  H    0.002107   0.005004  -0.013668  -0.011181   0.029791  -0.033220
    21  H    0.005678  -0.006683  -0.029770  -0.011340   0.001993   0.009674
              7          8          9         10         11         12
     1  C   -0.038633   0.159553   0.017537   0.004869   0.016498   0.452488
     2  C    0.104159  -0.165525  -0.058619   0.011581  -0.002085  -0.115984
     3  C    0.258304   0.264452  -0.023033   0.003800  -0.103598   0.024445
     4  C    0.099514   0.023031  -0.116470   0.144074  -0.111976   0.000463
     5  C   -0.205788  -0.215965   0.034607  -0.070454   0.246641   0.003973
     6  C   -0.134442   0.070683   0.176089  -0.037109   0.012832   0.002925
     7  O    8.435914  -0.075057   0.016027   0.004715   0.012984   0.010524
     8  O   -0.075057   8.537182  -0.001150  -0.000771  -0.011457  -0.052027
     9  O    0.016027  -0.001150   8.418487  -0.017258  -0.000908   0.000365
    10  O    0.004715  -0.000771  -0.017258   8.383172   0.006582  -0.000064
    11  O    0.012984  -0.011457  -0.000908   0.006582   8.309191   0.001301
    12  H    0.010524  -0.052027   0.000365  -0.000064   0.001301   0.532556
    13  H   -0.000844  -0.043374  -0.000027   0.000060  -0.000483  -0.038255
    14  H   -0.033617   0.010028  -0.003299  -0.002009   0.000061   0.001903
    15  H   -0.049192  -0.032311   0.000082  -0.001648   0.004018  -0.000271
    16  H   -0.000261  -0.002826   0.006474  -0.044275  -0.000867   0.000004
    17  H   -0.000166   0.005695  -0.001073  -0.002698  -0.056938   0.000000
    18  H    0.009065  -0.001775  -0.041613   0.005055   0.001419   0.002018
    19  H   -0.000879   0.000174   0.246985   0.001542  -0.000035   0.000048
    20  H   -0.001454   0.000017   0.024765   0.247717  -0.000433   0.000000
    21  H    0.001168   0.030611  -0.000099  -0.000335   0.253601  -0.000301
             13         14         15         16         17         18
     1  C    0.414551  -0.000268   0.017623  -0.000678   0.000080   0.037036
     2  C   -0.023042   0.328830   0.010376   0.025491  -0.025183  -0.118616
     3  C   -0.024756   0.015165   0.348715   0.013200  -0.012853  -0.002066
     4  C    0.001780   0.033511   0.025795   0.349032  -0.059146  -0.039479
     5  C    0.000498  -0.004863  -0.039919  -0.055821   0.392814   0.003105
     6  C    0.002300  -0.035638  -0.001589  -0.018859   0.043926   0.415551
     7  O   -0.000844  -0.033617  -0.049192  -0.000261  -0.000166   0.009065
     8  O   -0.043374   0.010028  -0.032311  -0.002826   0.005695  -0.001775
     9  O   -0.000027  -0.003299   0.000082   0.006474  -0.001073  -0.041613
    10  O    0.000060  -0.002009  -0.001648  -0.044275  -0.002698   0.005055
    11  O   -0.000483   0.000061   0.004018  -0.000867  -0.056938   0.001419
    12  H   -0.038255   0.001903  -0.000271   0.000004   0.000000   0.002018
    13  H    0.546616  -0.003565   0.000522   0.000002   0.000007   0.000226
    14  H   -0.003565   0.510420  -0.000016  -0.000139   0.000010   0.001979
    15  H    0.000522  -0.000016   0.547577  -0.000148  -0.005269   0.000032
    16  H    0.000002  -0.000139  -0.000148   0.584284  -0.002309  -0.005298
    17  H    0.000007   0.000010  -0.005269  -0.002309   0.545747  -0.000122
    18  H    0.000226   0.001979   0.000032  -0.005298  -0.000122   0.560227
    19  H   -0.000026   0.001619   0.000000  -0.000176   0.000005  -0.004913
    20  H    0.000001  -0.000006   0.000018  -0.001580   0.000214   0.000683
    21  H    0.000115  -0.000009   0.000102  -0.000114   0.005840   0.000048
             19         20         21
     1  C   -0.002487   0.002107   0.005678
     2  C   -0.036456   0.005004  -0.006683
     3  C    0.000969  -0.013668  -0.029770
     4  C    0.020806  -0.011181  -0.011340
     5  C   -0.001242   0.029791   0.001993
     6  C    0.024018  -0.033220   0.009674
     7  O   -0.000879  -0.001454   0.001168
     8  O    0.000174   0.000017   0.030611
     9  O    0.246985   0.024765  -0.000099
    10  O    0.001542   0.247717  -0.000335
    11  O   -0.000035  -0.000433   0.253601
    12  H    0.000048   0.000000  -0.000301
    13  H   -0.000026   0.000001   0.000115
    14  H    0.001619  -0.000006  -0.000009
    15  H    0.000000   0.000018   0.000102
    16  H   -0.000176  -0.001580  -0.000114
    17  H    0.000005   0.000214   0.005840
    18  H   -0.004913   0.000683   0.000048
    19  H    0.319281  -0.000477   0.000000
    20  H   -0.000477   0.332821   0.000012
    21  H    0.000000   0.000012   0.329535
 Mulliken atomic charges:
              1
     1  C   -0.217111
     2  C    0.382226
     3  C    0.089128
     4  C    0.131142
     5  C    0.075031
     6  C   -0.119525
     7  O   -0.412038
     8  O   -0.499187
     9  O   -0.677870
    10  O   -0.636546
    11  O   -0.576348
    12  H    0.173890
    13  H    0.167695
    14  H    0.179904
    15  H    0.175504
    16  H    0.154863
    17  H    0.171420
    18  H    0.177435
    19  H    0.431246
    20  H    0.418868
    21  H    0.410275
 Sum of Mulliken atomic charges =   0.00000
 Mulliken charges with hydrogens summed into heavy atoms:
              1
     1  C    0.124474
     2  C    0.562129
     3  C    0.264632
     4  C    0.286005
     5  C    0.246451
     6  C    0.057910
     7  O   -0.412038
     8  O   -0.499187
     9  O   -0.246624
    10  O   -0.217678
    11  O   -0.166073
 Sum of Mulliken charges with hydrogens summed into heavy atoms =   0.00000
 Electronic spatial extent (au):  <R**2>=           1424.0888
 Charge=              0.0000 electrons
 Dipole moment (field-independent basis, Debye):
    X=             -0.5543    Y=             -6.5491    Z=             -3.1204  Tot=              7.2756
 Quadrupole moment (field-independent basis, Debye-Ang):
   XX=            -68.5572   YY=            -62.8248   ZZ=            -66.6353
   XY=              4.4005   XZ=              4.8437   YZ=              6.5809
 Traceless Quadrupole moment (field-independent basis, Debye-Ang):
   XX=             -2.5514   YY=              3.1810   ZZ=             -0.6295
   XY=              4.4005   XZ=              4.8437   YZ=              6.5809
 Octapole moment (field-independent basis, Debye-Ang**2):
  XXX=            -14.9427  YYY=            -46.5752  ZZZ=            -12.3323  XYY=            -13.1277
  XXY=            -16.8722  XXZ=              0.7936  XZZ=              4.5932  YZZ=             -5.8351
  YYZ=             -0.2256  XYZ=              6.4558
 Hexadecapole moment (field-independent basis, Debye-Ang**3):
 XXXX=           -837.7389 YYYY=           -638.1329 ZZZZ=           -297.8088 XXXY=             37.4710
 XXXZ=             -2.2210 YYYX=             12.0771 YYYZ=             27.5919 ZZZX=              1.4364
 ZZZY=             14.1097 XXYY=           -232.6713 XXZZ=           -171.5033 YYZZ=           -163.4261
 XXYZ=             12.1427 YYXZ=             29.5697 ZZXY=             11.8273
 N-N= 7.283189700563D+02 E-N=-2.886564652802D+03  KE= 6.053454793619D+02

 Test job not archived.
 1\1\GINC-COMPUTE-10-0\SP\RB3LYP\6-31+G(d,p)\C6H10O5\ASAROTTI.IQUIR\15-
 Apr-2019\0\\# B3LYP/6-31+G** test scrf=(pcm,solvent=water,smd,dovacuum
 )\\comment\\0,1\C,0,1.232124,-1.69934,-0.454171\C,0,-0.115571,-1.40292
 6,0.210106\C,0,1.251326,0.2302,0.821878\C,0,-0.924827,0.979808,-0.2776
 63\C,0,0.50788,1.401399,0.123253\C,0,-1.034896,-0.515921,-0.670888\O,0
 ,0.3326,-0.679063,1.376732\O,0,1.988784,-0.503041,-0.176746\O,0,-2.416
 799,-0.842271,-0.522939\O,0,-1.768248,1.259717,0.833235\O,0,1.265089,1
 .884605,-0.974136\H,0,1.177277,-1.847827,-1.535195\H,0,1.726239,-2.558
 801,0.010814\H,0,-0.639224,-2.296348,0.555718\H,0,1.941622,0.564614,1.
 598918\H,0,-1.221413,1.58842,-1.144336\H,0,0.392758,2.226468,0.833888\
 H,0,-0.740994,-0.628127,-1.722897\H,0,-2.562215,-1.751217,-0.829205\H,
 0,-2.540181,0.674373,0.73201\H,0,1.758502,1.109545,-1.303989\\Version=
 EM64L-G09RevC.01\State=1-A\HF=-610.8015478\RMSD=4.552e-09\Dipole=-0.21
 8065,-2.5766282,-1.2276418\Quadrupole=-1.8969229,2.3649734,-0.4680505,
 3.2716945,3.6011459,4.8927705\PG=C01 [X(C6H10O5)]\\@


 LET US PLACE AT THE END OF EVERY CHAPTER.....THE
 TWO LETTERS USED BY THE ROMAN JUDGES WHEN THEY DID
 NOT UNDERSTAND A PLEADING.
 N. L. -NON LIQUET- IT IS NOT CLEAR.
                                              -- VOLTAIRE
 Job cpu time:  0 days  0 hours 12 minutes 55.9 seconds.
 File lengths (MBytes):  RWF=     56 Int=      0 D2E=      0 Chk=      4 Scr=      1
 Normal termination of Gaussian 09 at Mon Apr 15 19:16:34 2019.
