 Entering Gaussian System, Link 0=g09
 Input=/home/mmarcarino.iquir/NMR/08_SRR_Levo11_OPTB_nmr.gjc
 Output=/home/mmarcarino.iquir/NMR/08_SRR_Levo11_OPTB_nmr.log
 Initial command:
 /share/apps/Gaussian09/EM64T.SSE4.2-enabled/g09/l1.exe /tmp/Gau-8612.inp -scrdir=/tmp/
 Entering Link 1 = /share/apps/Gaussian09/EM64T.SSE4.2-enabled/g09/l1.exe PID=      8615.
  
 Copyright (c) 1988,1990,1992,1993,1995,1998,2003,2009,2011,
            Gaussian, Inc.  All Rights Reserved.
  
 This is part of the Gaussian(R) 09 program.  It is based on
 the Gaussian(R) 03 system (copyright 2003, Gaussian, Inc.),
 the Gaussian(R) 98 system (copyright 1998, Gaussian, Inc.),
 the Gaussian(R) 94 system (copyright 1995, Gaussian, Inc.),
 the Gaussian 92(TM) system (copyright 1992, Gaussian, Inc.),
 the Gaussian 90(TM) system (copyright 1990, Gaussian, Inc.),
 the Gaussian 88(TM) system (copyright 1988, Gaussian, Inc.),
 the Gaussian 86(TM) system (copyright 1986, Carnegie Mellon
 University), and the Gaussian 82(TM) system (copyright 1983,
 Carnegie Mellon University). Gaussian is a federally registered
 trademark of Gaussian, Inc.
  
 This software contains proprietary and confidential information,
 including trade secrets, belonging to Gaussian, Inc.
  
 This software is provided under written license and may be
 used, copied, transmitted, or stored only in accord with that
 written license.
  
 The following legend is applicable only to US Government
 contracts under FAR:
  
                    RESTRICTED RIGHTS LEGEND
  
 Use, reproduction and disclosure by the US Government is
 subject to restrictions as set forth in subparagraphs (a)
 and (c) of the Commercial Computer Software - Restricted
 Rights clause in FAR 52.227-19.
  
 Gaussian, Inc.
 340 Quinnipiac St., Bldg. 40, Wallingford CT 06492
  
  
 ---------------------------------------------------------------
 Warning -- This program may not be used in any manner that
 competes with the business of Gaussian, Inc. or will provide
 assistance to any competitor of Gaussian, Inc.  The licensee
 of this program is prohibited from giving any competitor of
 Gaussian, Inc. access to this program.  By using this program,
 the user acknowledges that Gaussian, Inc. is engaged in the
 business of creating and licensing software in the field of
 computational chemistry and represents and warrants to the
 licensee that it is not a competitor of Gaussian, Inc. and that
 it will not use this program in any manner prohibited above.
 ---------------------------------------------------------------
  

 Cite this work as:
 Gaussian 09, Revision C.01,
 M. J. Frisch, G. W. Trucks, H. B. Schlegel, G. E. Scuseria, 
 M. A. Robb, J. R. Cheeseman, G. Scalmani, V. Barone, B. Mennucci, 
 G. A. Petersson, H. Nakatsuji, M. Caricato, X. Li, H. P. Hratchian, 
 A. F. Izmaylov, J. Bloino, G. Zheng, J. L. Sonnenberg, M. Hada, 
 M. Ehara, K. Toyota, R. Fukuda, J. Hasegawa, M. Ishida, T. Nakajima, 
 Y. Honda, O. Kitao, H. Nakai, T. Vreven, J. A. Montgomery, Jr., 
 J. E. Peralta, F. Ogliaro, M. Bearpark, J. J. Heyd, E. Brothers, 
 K. N. Kudin, V. N. Staroverov, T. Keith, R. Kobayashi, J. Normand, 
 K. Raghavachari, A. Rendell, J. C. Burant, S. S. Iyengar, J. Tomasi, 
 M. Cossi, N. Rega, J. M. Millam, M. Klene, J. E. Knox, J. B. Cross, 
 V. Bakken, C. Adamo, J. Jaramillo, R. Gomperts, R. E. Stratmann, 
 O. Yazyev, A. J. Austin, R. Cammi, C. Pomelli, J. W. Ochterski, 
 R. L. Martin, K. Morokuma, V. G. Zakrzewski, G. A. Voth, 
 P. Salvador, J. J. Dannenberg, S. Dapprich, A. D. Daniels, 
 O. Farkas, J. B. Foresman, J. V. Ortiz, J. Cioslowski, 
 and D. J. Fox, Gaussian, Inc., Wallingford CT, 2010.
 
 ******************************************
 Gaussian 09:  EM64L-G09RevC.01 23-Sep-2011
                12-Apr-2019 
 ******************************************
 %nprocshared=4
 Will use up to    4 processors via shared memory.
 ------------------------------------------------
 # mpw1pw91/6-31+g** nmr scrf=(pcm,solvent=water)
 ------------------------------------------------
 1/38=1/1;
 2/12=2,17=6,18=5,40=1/2;
 3/5=1,6=6,7=111,11=2,16=1,25=1,30=1,70=2201,72=1,74=-7/1,2,8,3;
 4//1;
 5/5=2,38=5,53=1/2;
 8/6=1,10=90,11=11/1;
 10/13=100,45=16/2;
 6/7=2,8=2,9=2,10=2,28=1/1;
 99/9=1/99;
 -------
 comment
 -------
 Charge =  0 Multiplicity = 1
 Symbolic Z-Matrix:
 6                     1.8823    0.02673   1.05697 
 6                     1.27377   1.00933   0.04364 
 6                     0.82703  -1.03073  -0.696 
 6                    -1.01426   0.12117   0.55233 
 6                    -0.70074  -0.91947  -0.5273 
 6                    -0.18807   1.40175   0.35364 
 8                     1.30775   0.21708  -1.15854 
 8                     1.47487  -1.26239   0.55689 
 8                    -0.75048   2.13975  -0.72434 
 8                    -2.39956   0.43072   0.59711 
 8                    -1.30785  -2.13618  -0.09513 
 1                     1.51147   0.16289   2.07792 
 1                     2.97594   0.08468   1.06092 
 1                     1.88892   1.89666  -0.12291 
 1                     1.116    -1.81656  -1.39994 
 1                    -0.70566  -0.3219    1.51027 
 1                    -1.12222  -0.58977  -1.48543 
 1                    -0.21513   1.9933    1.28163 
 1                    -0.23497   2.95698  -0.82003 
 1                    -2.84931  -0.42925   0.66155 
 1                    -1.44303  -2.7016   -0.87165 
 
                          Input orientation:                          
 ---------------------------------------------------------------------
 Center     Atomic      Atomic             Coordinates (Angstroms)
 Number     Number       Type             X           Y           Z
 ---------------------------------------------------------------------
      1          6           0        1.882299    0.026731    1.056966
      2          6           0        1.273770    1.009327    0.043644
      3          6           0        0.827026   -1.030730   -0.695998
      4          6           0       -1.014257    0.121174    0.552330
      5          6           0       -0.700739   -0.919465   -0.527298
      6          6           0       -0.188072    1.401753    0.353641
      7          8           0        1.307754    0.217078   -1.158535
      8          8           0        1.474867   -1.262386    0.556889
      9          8           0       -0.750478    2.139746   -0.724338
     10          8           0       -2.399561    0.430721    0.597114
     11          8           0       -1.307851   -2.136181   -0.095133
     12          1           0        1.511468    0.162891    2.077920
     13          1           0        2.975937    0.084677    1.060916
     14          1           0        1.888920    1.896657   -0.122911
     15          1           0        1.116003   -1.816556   -1.399935
     16          1           0       -0.705663   -0.321896    1.510265
     17          1           0       -1.122224   -0.589768   -1.485434
     18          1           0       -0.215132    1.993300    1.281628
     19          1           0       -0.234969    2.956981   -0.820028
     20          1           0       -2.849311   -0.429247    0.661553
     21          1           0       -1.443031   -2.701603   -0.871654
 ---------------------------------------------------------------------
                    Distance matrix (angstroms):
                    1          2          3          4          5
     1  C    0.000000
     2  C    1.537083   0.000000
     3  C    2.303195   2.215510   0.000000
     4  C    2.941703   2.506520   2.505101   0.000000
     5  C    3.174471   2.818670   1.541073   1.531933   0.000000
     6  C    2.582980   1.545017   2.837101   1.536861   2.535140
     7  O    2.296689   1.440155   1.414943   2.885826   2.392537
     8  O    1.441492   2.337636   1.429366   2.847806   2.454856
     9  O    3.816987   2.442381   3.541361   2.402934   3.065953
    10  O    4.325390   3.759584   3.770788   1.420173   2.444034
    11  O    4.022757   4.071639   2.478056   2.366655   1.426797
    12  H    1.094716   2.216130   3.096419   2.951009   3.585040
    13  H    1.095179   2.187965   2.991437   4.022641   4.129004
    14  H    2.211058   1.092476   3.166329   3.469399   3.847130
    15  H    3.165640   3.177173   1.093873   3.479101   2.206087
    16  H    2.650390   2.800230   2.778341   1.099628   2.123388
    17  H    3.983846   3.261284   2.148775   2.160921   1.097440
    18  H    2.883935   2.172012   3.760566   2.162252   3.462980
    19  H    4.073364   2.610666   4.128566   3.245375   3.915286
    20  H    4.769948   4.410341   3.964868   1.918936   2.504005
    21  H    4.713937   4.689326   2.824151   3.190556   1.961019
                    6          7          8          9         10
     6  C    0.000000
     7  O    2.434672   0.000000
     8  O    3.147112   2.271436   0.000000
     9  O    1.422313   2.849824   4.262418   0.000000
    10  O    2.427523   4.107570   4.228407   2.717807   0.000000
    11  O    3.737951   3.675601   2.988674   4.357765   2.874025
    12  H    2.719624   3.243313   2.084776   4.108163   4.190545
    13  H    3.499411   2.779627   2.078902   4.614825   5.406555
    14  H    2.187676   2.057002   3.257778   2.717946   4.588951
    15  H    3.890135   2.056869   2.065199   4.426343   4.625759
    16  H    2.139310   3.386271   2.558937   3.324927   2.066293
    17  H    2.867227   2.581212   3.371703   2.857920   2.647639
    18  H    1.100827   3.380613   3.739095   2.081332   2.771632
    19  H    1.948957   3.162538   4.756311   0.970968   3.616039
    20  H    3.244929   4.583846   4.404951   3.595208   0.972611
    21  H    4.462488   4.020922   3.553338   4.892851   3.589385
                   11         12         13         14         15
    11  O    0.000000
    12  H    4.237505   0.000000
    13  H    4.961804   1.784680   0.000000
    14  H    5.146251   2.827025   2.422050   0.000000
    15  H    2.771234   4.021204   3.623511   4.002017   0.000000
    16  H    2.496310   2.339427   3.731139   3.784323   3.744561
    17  H    2.087771   4.494477   4.871724   4.135912   2.553817
    18  H    4.487997   2.639247   3.724846   2.531621   4.845380
    19  H    5.255173   4.388062   4.700851   2.474099   4.994805
    20  H    2.421218   4.623107   5.861495   5.336295   4.679538
    21  H    0.970031   5.063040   5.570050   5.727697   2.758812
                   16         17         18         19         20
    16  H    0.000000
    17  H    3.036361   0.000000
    18  H    2.377610   3.892517   0.000000
    19  H    4.050044   3.716102   2.312149   0.000000
    20  H    2.308043   2.760100   3.632097   4.527296   0.000000
    21  H    3.446775   2.222496   5.309093   5.786333   3.080901
                   21
    21  H    0.000000
 Stoichiometry    C6H10O5
 Framework group  C1[X(C6H10O5)]
 Deg. of freedom    57
 Full point group                 C1      NOp   1
 Largest Abelian subgroup         C1      NOp   1
 Largest concise Abelian subgroup C1      NOp   1
                         Standard orientation:                         
 ---------------------------------------------------------------------
 Center     Atomic      Atomic             Coordinates (Angstroms)
 Number     Number       Type             X           Y           Z
 ---------------------------------------------------------------------
      1          6           0        1.882299    0.026731    1.056966
      2          6           0        1.273770    1.009327    0.043644
      3          6           0        0.827026   -1.030730   -0.695998
      4          6           0       -1.014257    0.121174    0.552330
      5          6           0       -0.700739   -0.919465   -0.527298
      6          6           0       -0.188072    1.401753    0.353641
      7          8           0        1.307754    0.217078   -1.158535
      8          8           0        1.474867   -1.262386    0.556889
      9          8           0       -0.750478    2.139746   -0.724338
     10          8           0       -2.399561    0.430721    0.597114
     11          8           0       -1.307852   -2.136181   -0.095133
     12          1           0        1.511468    0.162891    2.077920
     13          1           0        2.975937    0.084676    1.060916
     14          1           0        1.888920    1.896657   -0.122911
     15          1           0        1.116003   -1.816556   -1.399935
     16          1           0       -0.705663   -0.321896    1.510265
     17          1           0       -1.122224   -0.589768   -1.485434
     18          1           0       -0.215132    1.993300    1.281628
     19          1           0       -0.234969    2.956981   -0.820028
     20          1           0       -2.849311   -0.429246    0.661553
     21          1           0       -1.443032   -2.701603   -0.871654
 ---------------------------------------------------------------------
 Rotational constants (GHZ):      1.4650513      1.2877719      0.8865520
 Standard basis: 6-31+G(d,p) (6D, 7F)
 There are   259 symmetry adapted basis functions of A   symmetry.
 Integral buffers will be    131072 words long.
 Raffenetti 2 integral format.
 Two-electron integral symmetry is turned on.
   259 basis functions,   422 primitive gaussians,   259 cartesian basis functions
    43 alpha electrons       43 beta electrons
       nuclear repulsion energy       726.2091521971 Hartrees.
 NAtoms=   21 NActive=   21 NUniq=   21 SFac= 1.00D+00 NAtFMM=   60 NAOKFM=F Big=F
 ------------------------------------------------------------------------------
 Polarizable Continuum Model (PCM)
 =================================
 Model                : PCM.
 Atomic radii         : UFF (Universal Force Field).
 Polarization charges : Total charges.
 Charge compensation  : None.
 Solution method      : Matrix inversion.
 Cavity type          : Scaled VdW (van der Waals Surface) (Alpha=1.100).
 Cavity algorithm     : GePol (No added spheres)
                        Default sphere list used, NSphG=   21.
                        Lebedev-Laikov grids with approx.  5.0 points / Ang**2.
                        Smoothing algorithm: Karplus/York (Gamma=1.0000).
                        Polarization charges: spherical gaussians, with
                                              point-specific exponents (IZeta= 3).
                        Self-potential: point-specific (ISelfS= 7).
                        Self-field    : sphere-specific E.n sum rule (ISelfD= 2).
 Solvent              : Water, Eps=  78.355300 Eps(inf)=   1.777849
 ------------------------------------------------------------------------------
 One-electron integrals computed using PRISM.
 NBasis=   259 RedAO= T  NBF=   259
 NBsUse=   259 1.00D-06 NBFU=   259
 Harris functional with IExCor=  908 diagonalized for initial guess.
 ExpMin= 4.38D-02 ExpMax= 5.48D+03 ExpMxC= 8.25D+02 IAcc=2 IRadAn=         4 AccDes= 0.00D+00
 HarFok:  IExCor=  908 AccDes= 0.00D+00 IRadAn=         4 IDoV= 1
 ScaDFX=  1.000000  1.000000  1.000000  1.000000
 FoFCou: FMM=F IPFlag=           0 FMFlag=      100000 FMFlg1=           0
         NFxFlg=           0 DoJE=T BraDBF=F KetDBF=T FulRan=T
         Omega=  0.000000  0.000000  1.000000  0.000000  0.000000 ICntrl=     500 IOpCl=  0
         NMat0=    1 NMatS0=    1 NMatT0=    0 NMatD0=    1 NMtDS0=    0 NMtDT0=    0
         I1Cent=           4 NGrid=           0.
 Petite list used in FoFCou.
 Initial guess orbital symmetries:
       Occupied  (A) (A) (A) (A) (A) (A) (A) (A) (A) (A) (A) (A)
                 (A) (A) (A) (A) (A) (A) (A) (A) (A) (A) (A) (A)
                 (A) (A) (A) (A) (A) (A) (A) (A) (A) (A) (A) (A)
                 (A) (A) (A) (A) (A) (A) (A)
       Virtual   (A) (A) (A) (A) (A) (A) (A) (A) (A) (A) (A) (A)
                 (A) (A) (A) (A) (A) (A) (A) (A) (A) (A) (A) (A)
                 (A) (A) (A) (A) (A) (A) (A) (A) (A) (A) (A) (A)
                 (A) (A) (A) (A) (A) (A) (A) (A) (A) (A) (A) (A)
                 (A) (A) (A) (A) (A) (A) (A) (A) (A) (A) (A) (A)
                 (A) (A) (A) (A) (A) (A) (A) (A) (A) (A) (A) (A)
                 (A) (A) (A) (A) (A) (A) (A) (A) (A) (A) (A) (A)
                 (A) (A) (A) (A) (A) (A) (A) (A) (A) (A) (A) (A)
                 (A) (A) (A) (A) (A) (A) (A) (A) (A) (A) (A) (A)
                 (A) (A) (A) (A) (A) (A) (A) (A) (A) (A) (A) (A)
                 (A) (A) (A) (A) (A) (A) (A) (A) (A) (A) (A) (A)
                 (A) (A) (A) (A) (A) (A) (A) (A) (A) (A) (A) (A)
                 (A) (A) (A) (A) (A) (A) (A) (A) (A) (A) (A) (A)
                 (A) (A) (A) (A) (A) (A) (A) (A) (A) (A) (A) (A)
                 (A) (A) (A) (A) (A) (A) (A) (A) (A) (A) (A) (A)
                 (A) (A) (A) (A) (A) (A) (A) (A) (A) (A) (A) (A)
                 (A) (A) (A) (A) (A) (A) (A) (A) (A) (A) (A) (A)
                 (A) (A) (A) (A) (A) (A) (A) (A) (A) (A) (A) (A)
 The electronic state of the initial guess is 1-A.
 Requested convergence on RMS density matrix=1.00D-08 within 128 cycles.
 Requested convergence on MAX density matrix=1.00D-06.
 Requested convergence on             energy=1.00D-06.
 No special actions if energy rises.
 Error on total polarization charges =  0.01152
 SCF Done:  E(RmPW1PW91) =  -610.647680269     A.U. after   12 cycles
             Convg  =    0.4788D-08             -V/T =  2.0090
 Range of M.O.s used for correlation:     1   259
 NBasis=   259 NAE=    43 NBE=    43 NFC=     0 NFV=     0
 NROrb=    259 NOA=    43 NOB=    43 NVA=   216 NVB=   216

 **** Warning!!: The largest alpha MO coefficient is  0.63239048D+02

 NEqPCM:  Using equilibrium solvation (IEInf=0, Eps=  78.3553, EpsInf=   1.7778)
          Differentiating once with respect to magnetic field using GIAOs.
          Electric field/nuclear overlap derivatives assumed to be zero.
 FoFCou: FMM=F IPFlag=           0 FMFlag=    10101102 FMFlg1=           0
         NFxFlg=    40000000 DoJE=F BraDBF=F KetDBF=T FulRan=T
         Omega=  0.000000  0.000000  1.000000  0.000000  0.000000 ICntrl=    6100 IOpCl=  0
         NMat0=    1 NMatS0=    1 NMatT0=    0 NMatD0=    1 NMtDS0=    0 NMtDT0=    0
         I1Cent=           7 NGrid=        1554.
 Symmetry not used in FoFCou.
          There are     3 degrees of freedom in the 1st order CPHF.  IDoFFX=0.
      3 vectors produced by pass  0 Test12= 3.10D-13 3.33D-08 XBig12= 2.07D+01 1.16D+00.
 AX will form     3 AO Fock derivatives at one time.
      3 vectors produced by pass  1 Test12= 3.10D-13 3.33D-08 XBig12= 5.12D-02 3.06D-02.
      3 vectors produced by pass  2 Test12= 3.10D-13 3.33D-08 XBig12= 1.44D-04 2.03D-03.
      3 vectors produced by pass  3 Test12= 3.10D-13 3.33D-08 XBig12= 6.90D-07 1.03D-04.
      3 vectors produced by pass  4 Test12= 3.10D-13 3.33D-08 XBig12= 1.92D-09 6.18D-06.
      3 vectors produced by pass  5 Test12= 3.10D-13 3.33D-08 XBig12= 6.27D-12 3.69D-07.
 Inverted reduced A of dimension    18 with in-core refinement.
 Calculating GIAO nuclear magnetic shielding tensors.
 SCF GIAO Magnetic shielding tensor (ppm):
      1  C    Isotropic =   129.6691   Anisotropy =    61.9531
   XX=   111.1768   YX=    15.1395   ZX=    14.8965
   XY=    12.9334   YY=   161.1746   ZY=    11.4370
   XZ=     9.9500   YZ=    19.4103   ZZ=   116.6558
   Eigenvalues:   101.1565   116.8796   170.9711
      2  C    Isotropic =   115.1984   Anisotropy =    47.4512
   XX=   100.4026   YX=   -13.2959   ZX=     7.4233
   XY=    -6.5191   YY=   114.7857   ZY=    14.5869
   XZ=     0.9896   YZ=    31.0377   ZZ=   130.4070
   Eigenvalues:    88.8500   109.9127   146.8326
      3  C    Isotropic =    92.1748   Anisotropy =    25.1661
   XX=    86.8613   YX=    18.2740   ZX=    14.0748
   XY=     5.6591   YY=    95.6732   ZY=   -16.3778
   XZ=     9.6560   YZ=   -11.7581   ZZ=    93.9900
   Eigenvalues:    66.6786   100.8937   108.9522
      4  C    Isotropic =   125.3717   Anisotropy =    37.9139
   XX=   147.7843   YX=   -13.8120   ZX=    -5.0779
   XY=    -4.7494   YY=   119.4070   ZY=     4.4854
   XZ=     2.1395   YZ=    -0.2252   ZZ=   108.9237
   Eigenvalues:   108.5038   116.9636   150.6476
      5  C    Isotropic =   119.6946   Anisotropy =    26.4933
   XX=   125.1208   YX=    10.1386   ZX=    -6.3531
   XY=     0.1441   YY=   129.9038   ZY=    -0.8722
   XZ=    -9.3271   YZ=   -17.0050   ZZ=   104.0590
   Eigenvalues:    99.7772   121.9498   137.3567
      6  C    Isotropic =   123.5094   Anisotropy =    41.8805
   XX=   122.7227   YX=   -16.2734   ZX=    15.0824
   XY=    -9.6355   YY=   115.8143   ZY=   -15.6187
   XZ=     3.8259   YZ=   -19.9389   ZZ=   131.9911
   Eigenvalues:   102.1659   116.9325   151.4297
      7  O    Isotropic =   237.6096   Anisotropy =    49.4812
   XX=   209.3835   YX=    42.9571   ZX=    24.9306
   XY=    24.4123   YY=   251.9495   ZY=   -24.3081
   XZ=    40.7311   YZ=   -12.6401   ZZ=   251.4957
   Eigenvalues:   172.7912   269.4406   270.5970
      8  O    Isotropic =   273.2030   Anisotropy =   100.9082
   XX=   217.9478   YX=    18.2155   ZX=    59.4699
   XY=    21.3723   YY=   302.2253   ZY=   -20.1787
   XZ=    47.9762   YZ=   -46.6904   ZZ=   299.4360
   Eigenvalues:   182.1781   296.9558   340.4751
      9  O    Isotropic =   297.1525   Anisotropy =    67.0922
   XX=   287.8740   YX=    28.2430   ZX=   -16.4899
   XY=    14.6960   YY=   326.0046   ZY=   -24.2973
   XZ=     6.2840   YZ=   -14.9355   ZZ=   277.5788
   Eigenvalues:   270.0808   279.4960   341.8806
     10  O    Isotropic =   308.9588   Anisotropy =    39.7578
   XX=   321.5952   YX=    14.9275   ZX=    -2.8395
   XY=    14.6755   YY=   313.7666   ZY=    12.1621
   XZ=    15.2048   YZ=     5.8212   ZZ=   291.5144
   Eigenvalues:   288.3024   303.1099   335.4640
     11  O    Isotropic =   305.3570   Anisotropy =    52.7545
   XX=   270.1437   YX=    -3.1198   ZX=     6.0494
   XY=    18.4633   YY=   332.1659   ZY=    11.1307
   XZ=    -0.1098   YZ=    16.5381   ZZ=   313.7613
   Eigenvalues:   269.1697   306.3746   340.5266
     12  H    Isotropic =    27.7644   Anisotropy =     7.1610
   XX=    25.8586   YX=     0.4382   ZX=     1.2917
   XY=    -0.3050   YY=    25.9138   ZY=     3.1182
   XZ=     1.9157   YZ=     0.9438   ZZ=    31.5207
   Eigenvalues:    24.9397    25.8151    32.5384
     13  H    Isotropic =    27.7071   Anisotropy =    11.5299
   XX=    33.4806   YX=     1.6235   ZX=     3.9881
   XY=     3.1907   YY=    26.1960   ZY=     0.9196
   XZ=     3.3426   YZ=     0.8825   ZZ=    23.4447
   Eigenvalues:    22.2450    25.4826    35.3937
     14  H    Isotropic =    27.2077   Anisotropy =     8.0411
   XX=    27.7875   YX=     3.9630   ZX=    -0.4473
   XY=     3.0265   YY=    29.8562   ZY=     0.2057
   XZ=     0.9076   YZ=     1.7834   ZZ=    23.9794
   Eigenvalues:    23.7600    25.2946    32.5684
     15  H    Isotropic =    26.2063   Anisotropy =     7.4400
   XX=    24.0616   YX=    -1.0724   ZX=    -0.6528
   XY=    -0.6936   YY=    27.2345   ZY=     3.5128
   XZ=    -0.9854   YZ=     3.8543   ZZ=    27.3229
   Eigenvalues:    23.5851    23.8676    31.1663
     16  H    Isotropic =    27.7240   Anisotropy =     5.5437
   XX=    31.0416   YX=    -2.0585   ZX=     1.0326
   XY=    -0.8241   YY=    24.1464   ZY=    -1.2026
   XZ=    -0.6007   YZ=    -2.0083   ZZ=    27.9839
   Eigenvalues:    23.3474    28.4047    31.4198
     17  H    Isotropic =    27.7335   Anisotropy =     3.5617
   XX=    26.1991   YX=     2.4618   ZX=     1.1878
   XY=     2.2395   YY=    28.5693   ZY=    -1.5311
   XZ=     1.5548   YZ=    -0.8915   ZZ=    28.4322
   Eigenvalues:    24.0134    29.0791    30.1080
     18  H    Isotropic =    27.3992   Anisotropy =     6.4043
   XX=    23.9950   YX=    -0.7352   ZX=     1.6494
   XY=    -1.3695   YY=    27.5945   ZY=     1.3344
   XZ=     0.2032   YZ=     2.7817   ZZ=    30.6080
   Eigenvalues:    23.3960    27.1329    31.6687
     19  H    Isotropic =    30.3045   Anisotropy =    19.5929
   XX=    26.6747   YX=     5.7416   ZX=     1.1978
   XY=     6.1859   YY=    39.9536   ZY=    -4.9849
   XZ=     0.0183   YZ=    -5.3359   ZZ=    24.2852
   Eigenvalues:    21.3525    26.1946    43.3664
     20  H    Isotropic =    29.1202   Anisotropy =    18.2334
   XX=    32.9024   YX=     7.2692   ZX=    -3.0279
   XY=     6.1840   YY=    35.4402   ZY=    -0.9047
   XZ=    -4.0883   YZ=     0.6348   ZZ=    19.0179
   Eigenvalues:    18.0166    28.0681    41.2758
     21  H    Isotropic =    29.5833   Anisotropy =    21.0344
   XX=    22.8203   YX=     5.8483   ZX=     2.0277
   XY=     5.0611   YY=    33.5856   ZY=     9.5149
   XZ=     2.6487   YZ=     8.6975   ZZ=    32.3441
   Eigenvalues:    20.2587    24.8850    43.6063
 End of Minotr Frequency-dependent properties file   721 does not exist.
 End of Minotr Frequency-dependent properties file   722 does not exist.

 **********************************************************************

            Population analysis using the SCF density.

 **********************************************************************

 Orbital symmetries:
       Occupied  (A) (A) (A) (A) (A) (A) (A) (A) (A) (A) (A) (A)
                 (A) (A) (A) (A) (A) (A) (A) (A) (A) (A) (A) (A)
                 (A) (A) (A) (A) (A) (A) (A) (A) (A) (A) (A) (A)
                 (A) (A) (A) (A) (A) (A) (A)
       Virtual   (A) (A) (A) (A) (A) (A) (A) (A) (A) (A) (A) (A)
                 (A) (A) (A) (A) (A) (A) (A) (A) (A) (A) (A) (A)
                 (A) (A) (A) (A) (A) (A) (A) (A) (A) (A) (A) (A)
                 (A) (A) (A) (A) (A) (A) (A) (A) (A) (A) (A) (A)
                 (A) (A) (A) (A) (A) (A) (A) (A) (A) (A) (A) (A)
                 (A) (A) (A) (A) (A) (A) (A) (A) (A) (A) (A) (A)
                 (A) (A) (A) (A) (A) (A) (A) (A) (A) (A) (A) (A)
                 (A) (A) (A) (A) (A) (A) (A) (A) (A) (A) (A) (A)
                 (A) (A) (A) (A) (A) (A) (A) (A) (A) (A) (A) (A)
                 (A) (A) (A) (A) (A) (A) (A) (A) (A) (A) (A) (A)
                 (A) (A) (A) (A) (A) (A) (A) (A) (A) (A) (A) (A)
                 (A) (A) (A) (A) (A) (A) (A) (A) (A) (A) (A) (A)
                 (A) (A) (A) (A) (A) (A) (A) (A) (A) (A) (A) (A)
                 (A) (A) (A) (A) (A) (A) (A) (A) (A) (A) (A) (A)
                 (A) (A) (A) (A) (A) (A) (A) (A) (A) (A) (A) (A)
                 (A) (A) (A) (A) (A) (A) (A) (A) (A) (A) (A) (A)
                 (A) (A) (A) (A) (A) (A) (A) (A) (A) (A) (A) (A)
                 (A) (A) (A) (A) (A) (A) (A) (A) (A) (A) (A) (A)
 The electronic state is 1-A.
 Alpha  occ. eigenvalues --  -19.27699 -19.26858 -19.26852 -19.26155 -19.25945
 Alpha  occ. eigenvalues --  -10.35809 -10.32003 -10.31759 -10.31282 -10.31053
 Alpha  occ. eigenvalues --  -10.30895  -1.14303  -1.08266  -1.07075  -1.05380
 Alpha  occ. eigenvalues --   -1.03885  -0.82565  -0.81214  -0.70589  -0.67682
 Alpha  occ. eigenvalues --   -0.65262  -0.60350  -0.57107  -0.56569  -0.54564
 Alpha  occ. eigenvalues --   -0.52081  -0.51011  -0.48659  -0.46693  -0.45947
 Alpha  occ. eigenvalues --   -0.45575  -0.44157  -0.41950  -0.40090  -0.38670
 Alpha  occ. eigenvalues --   -0.37632  -0.36896  -0.35008  -0.33856  -0.31650
 Alpha  occ. eigenvalues --   -0.30699  -0.29192  -0.27460
 Alpha virt. eigenvalues --    0.00546   0.01177   0.01797   0.02414   0.03938
 Alpha virt. eigenvalues --    0.04810   0.04968   0.05638   0.05985   0.07795
 Alpha virt. eigenvalues --    0.08327   0.09697   0.10017   0.10417   0.11373
 Alpha virt. eigenvalues --    0.12028   0.12758   0.13718   0.14022   0.14438
 Alpha virt. eigenvalues --    0.15009   0.15771   0.16384   0.17169   0.17513
 Alpha virt. eigenvalues --    0.18241   0.19127   0.19664   0.20057   0.21291
 Alpha virt. eigenvalues --    0.21783   0.22249   0.22934   0.23711   0.24528
 Alpha virt. eigenvalues --    0.25136   0.25240   0.25899   0.27520   0.27611
 Alpha virt. eigenvalues --    0.27913   0.28380   0.29122   0.29433   0.30573
 Alpha virt. eigenvalues --    0.31014   0.31623   0.32365   0.33564   0.33762
 Alpha virt. eigenvalues --    0.35412   0.35611   0.35798   0.36467   0.37055
 Alpha virt. eigenvalues --    0.37735   0.38251   0.38513   0.39675   0.39906
 Alpha virt. eigenvalues --    0.41654   0.42103   0.43851   0.45008   0.47664
 Alpha virt. eigenvalues --    0.49161   0.64325   0.66069   0.67699   0.68431
 Alpha virt. eigenvalues --    0.70311   0.71542   0.75559   0.77244   0.77603
 Alpha virt. eigenvalues --    0.79323   0.81462   0.83311   0.85100   0.86655
 Alpha virt. eigenvalues --    0.88359   0.89578   0.95506   0.96915   0.99176
 Alpha virt. eigenvalues --    1.01737   1.04112   1.04629   1.05353   1.07494
 Alpha virt. eigenvalues --    1.09834   1.10613   1.12331   1.13508   1.14332
 Alpha virt. eigenvalues --    1.18917   1.20937   1.21738   1.26484   1.27856
 Alpha virt. eigenvalues --    1.28791   1.30474   1.31155   1.33044   1.34149
 Alpha virt. eigenvalues --    1.34817   1.35634   1.37296   1.40949   1.41338
 Alpha virt. eigenvalues --    1.43853   1.45138   1.47905   1.49345   1.52599
 Alpha virt. eigenvalues --    1.55763   1.56738   1.56862   1.59522   1.60568
 Alpha virt. eigenvalues --    1.62680   1.65270   1.65601   1.66799   1.68333
 Alpha virt. eigenvalues --    1.70340   1.72289   1.74470   1.75772   1.79679
 Alpha virt. eigenvalues --    1.81304   1.84393   1.84539   1.86417   1.87441
 Alpha virt. eigenvalues --    1.89888   1.92281   1.94827   1.97519   1.98670
 Alpha virt. eigenvalues --    2.01882   2.02691   2.06903   2.07775   2.08569
 Alpha virt. eigenvalues --    2.10074   2.10941   2.14665   2.16921   2.18294
 Alpha virt. eigenvalues --    2.19853   2.21299   2.23606   2.25702   2.27389
 Alpha virt. eigenvalues --    2.31481   2.35831   2.39270   2.39982   2.42267
 Alpha virt. eigenvalues --    2.43177   2.45428   2.47585   2.50214   2.50368
 Alpha virt. eigenvalues --    2.54573   2.59829   2.59953   2.63137   2.64201
 Alpha virt. eigenvalues --    2.66023   2.67084   2.67538   2.69660   2.71579
 Alpha virt. eigenvalues --    2.73149   2.75094   2.77581   2.78981   2.80661
 Alpha virt. eigenvalues --    2.83576   2.85616   2.87236   2.89239   2.91491
 Alpha virt. eigenvalues --    2.94776   2.96546   2.97319   2.99897   3.00293
 Alpha virt. eigenvalues --    3.06257   3.10589   3.10634   3.14723   3.25116
 Alpha virt. eigenvalues --    3.35461   3.40927   3.41771   3.47117   3.49960
 Alpha virt. eigenvalues --    3.52654   3.53682   3.55001   3.57136   3.58965
 Alpha virt. eigenvalues --    4.30343   4.35846   4.41148   4.48044   4.51559
 Alpha virt. eigenvalues --    4.60467   4.63537   4.76583   4.84298   4.91027
 Alpha virt. eigenvalues --    5.03486
          Condensed to atoms (all electrons):
              1          2          3          4          5          6
     1  C    5.727148  -0.335341  -0.441295  -0.215894   0.216282   0.149676
     2  C   -0.335341   6.990622  -0.404876   0.302445   0.186187  -1.002900
     3  C   -0.441295  -0.404876   7.038124  -0.058785  -1.194102   0.357685
     4  C   -0.215894   0.302445  -0.058785   6.362088   0.044504  -0.401023
     5  C    0.216282   0.186187  -1.194102   0.044504   6.813183  -0.544457
     6  C    0.149676  -1.002900   0.357685  -0.401023  -0.544457   6.929461
     7  O   -0.068048   0.168214   0.274158  -0.062695  -0.053975  -0.089595
     8  O    0.200347  -0.123869   0.364011   0.009732  -0.227048  -0.021879
     9  O    0.028848  -0.061558  -0.038435  -0.203100   0.060367   0.258963
    10  O   -0.009564   0.051592   0.038273   0.247279  -0.077697  -0.178296
    11  O    0.029930  -0.040893  -0.114170  -0.156230   0.245368   0.076757
    12  H    0.458837  -0.162723   0.010072  -0.045762   0.019477   0.078865
    13  H    0.376500   0.011184  -0.005743   0.011923  -0.002622  -0.009203
    14  H    0.024640   0.264498   0.008937   0.004378  -0.001549   0.045090
    15  H    0.014073   0.030759   0.313094   0.022566   0.022368  -0.026646
    16  H    0.005039  -0.035787   0.027449   0.306662  -0.031452   0.016041
    17  H    0.006270  -0.028425  -0.037055  -0.133187   0.434434   0.048448
    18  H    0.030996   0.006111  -0.029240  -0.044026   0.044353   0.291079
    19  H    0.009065  -0.050999   0.009363   0.027805  -0.011210   0.025622
    20  H    0.001985  -0.016891   0.017043   0.029633  -0.085462   0.054937
    21  H   -0.002887   0.006443  -0.040286   0.017360   0.043297  -0.012519
              7          8          9         10         11         12
     1  C   -0.068048   0.200347   0.028848  -0.009564   0.029930   0.458837
     2  C    0.168214  -0.123869  -0.061558   0.051592  -0.040893  -0.162723
     3  C    0.274158   0.364011  -0.038435   0.038273  -0.114170   0.010072
     4  C   -0.062695   0.009732  -0.203100   0.247279  -0.156230  -0.045762
     5  C   -0.053975  -0.227048   0.060367  -0.077697   0.245368   0.019477
     6  C   -0.089595  -0.021879   0.258963  -0.178296   0.076757   0.078865
     7  O    8.248179  -0.055680   0.016372  -0.002901   0.007631   0.012008
     8  O   -0.055680   8.341474   0.001797  -0.001781   0.012664  -0.047095
     9  O    0.016372   0.001797   8.297575   0.006608  -0.000832  -0.000327
    10  O   -0.002901  -0.001781   0.006608   8.298294  -0.012997  -0.000269
    11  O    0.007631   0.012664  -0.000832  -0.012997   8.305316   0.000138
    12  H    0.012008  -0.047095  -0.000327  -0.000269   0.000138   0.528872
    13  H   -0.003627  -0.050940  -0.000196   0.000024  -0.000026  -0.036752
    14  H   -0.036325   0.007268  -0.005977  -0.000555   0.000081   0.002126
    15  H   -0.044171  -0.045189   0.000414  -0.000681  -0.004381  -0.000251
    16  H   -0.000184   0.007773   0.007126  -0.039017   0.000529   0.000952
    17  H    0.002099   0.010781   0.005824   0.004869  -0.043630  -0.000022
    18  H    0.009530  -0.000183  -0.039496   0.002267  -0.000440   0.000089
    19  H   -0.004065  -0.000076   0.240195  -0.000937   0.000083   0.000006
    20  H    0.000024   0.000165  -0.001857   0.229653   0.019755   0.000003
    21  H    0.000173  -0.000965   0.000156   0.000143   0.241723  -0.000003
             13         14         15         16         17         18
     1  C    0.376500   0.024640   0.014073   0.005039   0.006270   0.030996
     2  C    0.011184   0.264498   0.030759  -0.035787  -0.028425   0.006111
     3  C   -0.005743   0.008937   0.313094   0.027449  -0.037055  -0.029240
     4  C    0.011923   0.004378   0.022566   0.306662  -0.133187  -0.044026
     5  C   -0.002622  -0.001549   0.022368  -0.031452   0.434434   0.044353
     6  C   -0.009203   0.045090  -0.026646   0.016041   0.048448   0.291079
     7  O   -0.003627  -0.036325  -0.044171  -0.000184   0.002099   0.009530
     8  O   -0.050940   0.007268  -0.045189   0.007773   0.010781  -0.000183
     9  O   -0.000196  -0.005977   0.000414   0.007126   0.005824  -0.039496
    10  O    0.000024  -0.000555  -0.000681  -0.039017   0.004869   0.002267
    11  O   -0.000026   0.000081  -0.004381   0.000529  -0.043630  -0.000440
    12  H   -0.036752   0.002126  -0.000251   0.000952  -0.000022   0.000089
    13  H    0.532638  -0.003250   0.000334   0.000137   0.000022  -0.000062
    14  H   -0.003250   0.501342   0.000008  -0.000108  -0.000038  -0.002608
    15  H    0.000334   0.000008   0.533954  -0.000275  -0.002293   0.000024
    16  H    0.000137  -0.000108  -0.000275   0.554911   0.004723  -0.004905
    17  H    0.000022  -0.000038  -0.002293   0.004723   0.543731  -0.000112
    18  H   -0.000062  -0.002608   0.000024  -0.004905  -0.000112   0.563127
    19  H   -0.000007   0.003499   0.000000  -0.000172  -0.000044  -0.005559
    20  H    0.000000   0.000004  -0.000002  -0.005586  -0.001048  -0.000105
    21  H    0.000000   0.000000   0.002108   0.000104  -0.006790   0.000004
             19         20         21
     1  C    0.009065   0.001985  -0.002887
     2  C   -0.050999  -0.016891   0.006443
     3  C    0.009363   0.017043  -0.040286
     4  C    0.027805   0.029633   0.017360
     5  C   -0.011210  -0.085462   0.043297
     6  C    0.025622   0.054937  -0.012519
     7  O   -0.004065   0.000024   0.000173
     8  O   -0.000076   0.000165  -0.000965
     9  O    0.240195  -0.001857   0.000156
    10  O   -0.000937   0.229653   0.000143
    11  O    0.000083   0.019755   0.241723
    12  H    0.000006   0.000003  -0.000003
    13  H   -0.000007   0.000000   0.000000
    14  H    0.003499   0.000004   0.000000
    15  H    0.000000  -0.000002   0.002108
    16  H   -0.000172  -0.005586   0.000104
    17  H   -0.000044  -0.001048  -0.006790
    18  H   -0.005559  -0.000105   0.000004
    19  H    0.369096   0.000008   0.000000
    20  H    0.000008   0.375107  -0.001166
    21  H    0.000000  -0.001166   0.357796
 Mulliken atomic charges:
              1
     1  C   -0.206606
     2  C    0.246207
     3  C   -0.094221
     4  C   -0.065673
     5  C    0.099756
     6  C   -0.046106
     7  O   -0.317122
     8  O   -0.381305
     9  O   -0.572468
    10  O   -0.554306
    11  O   -0.566376
    12  H    0.181756
    13  H    0.179665
    14  H    0.188536
    15  H    0.184186
    16  H    0.186043
    17  H    0.191441
    18  H    0.179154
    19  H    0.388328
    20  H    0.383801
    21  H    0.395310
 Sum of Mulliken atomic charges =   0.00000
 Mulliken charges with hydrogens summed into heavy atoms:
              1
     1  C    0.154815
     2  C    0.434742
     3  C    0.089965
     4  C    0.120369
     5  C    0.291197
     6  C    0.133049
     7  O   -0.317122
     8  O   -0.381305
     9  O   -0.184140
    10  O   -0.170505
    11  O   -0.171066
 Sum of Mulliken charges with hydrogens summed into heavy atoms =   0.00000
 Electronic spatial extent (au):  <R**2>=           1433.3096
 Charge=              0.0000 electrons
 Dipole moment (field-independent basis, Debye):
    X=              2.2815    Y=              0.6927    Z=              0.2325  Tot=              2.3957
 Quadrupole moment (field-independent basis, Debye-Ang):
   XX=            -67.7860   YY=            -57.3104   ZZ=            -63.1549
   XY=             13.1212   XZ=              4.1267   YZ=              9.1437
 Traceless Quadrupole moment (field-independent basis, Debye-Ang):
   XX=             -5.0355   YY=              5.4400   ZZ=             -0.4045
   XY=             13.1212   XZ=              4.1267   YZ=              9.1437
 Octapole moment (field-independent basis, Debye-Ang**2):
  XXX=              3.4752  YYY=             20.7784  ZZZ=              2.6040  XYY=              3.3850
  XXY=            -13.2797  XXZ=              2.6908  XZZ=             -3.5218  YZZ=             -8.1570
  YYZ=            -23.5260  XYZ=             -1.1743
 Hexadecapole moment (field-independent basis, Debye-Ang**3):
 XXXX=           -764.8667 YYYY=           -540.0130 ZZZZ=           -275.2867 XXXY=             66.8323
 XXXZ=             11.9396 YYYX=             50.6855 YYYZ=             26.0478 ZZZX=             10.9585
 ZZZY=              9.3518 XXYY=           -254.4572 XXZZ=           -180.4347 YYZZ=           -141.3682
 XXYZ=              8.5431 YYXZ=              4.0229 ZZXY=             10.2087
 N-N= 7.262091521971D+02 E-N=-2.882835966178D+03  KE= 6.051965423793D+02
 1\1\GINC-COMPUTE-8-20\SP\RmPW1PW91\6-31+G(d,p)\C6H10O5\MMARCARINO.IQUI
 R\12-Apr-2019\0\\# mpw1pw91/6-31+g** nmr scrf=(pcm,solvent=water)\\com
 ment\\0,1\C,0,1.882299,0.026731,1.056966\C,0,1.27377,1.009327,0.043644
 \C,0,0.827026,-1.03073,-0.695998\C,0,-1.014257,0.121174,0.55233\C,0,-0
 .700739,-0.919465,-0.527298\C,0,-0.188072,1.401753,0.353641\O,0,1.3077
 54,0.217078,-1.158535\O,0,1.474867,-1.262386,0.556889\O,0,-0.750478,2.
 139746,-0.724338\O,0,-2.399561,0.430721,0.597114\O,0,-1.307851,-2.1361
 81,-0.095133\H,0,1.511468,0.162891,2.07792\H,0,2.975937,0.084677,1.060
 916\H,0,1.88892,1.896657,-0.122911\H,0,1.116003,-1.816556,-1.399935\H,
 0,-0.705663,-0.321896,1.510265\H,0,-1.122224,-0.589768,-1.485434\H,0,-
 0.215132,1.9933,1.281628\H,0,-0.234969,2.956981,-0.820028\H,0,-2.84931
 1,-0.429247,0.661553\H,0,-1.443031,-2.701603,-0.871654\\Version=EM64L-
 G09RevC.01\State=1-A\HF=-610.6476803\RMSD=4.788e-09\Dipole=0.8976119,0
 .2725351,0.0914797\Quadrupole=-3.7438052,4.0445209,-0.3007157,9.755263
 4,3.0680801,6.7981083\PG=C01 [X(C6H10O5)]\\@


 KEEP CLOSE TO NATURES HEART, YOURSELF;
 AND BREAK CLEAR AWAY, ONCE IN A WHILE, AND
 CLIMB A MOUNTAIN OR SPEND A WEEK IN THE
 WOODS.  WASH YOUR SPIRIT CLEAN...
                                         -- JOHN MUIR
 Job cpu time:  0 days  0 hours 21 minutes 33.2 seconds.
 File lengths (MBytes):  RWF=     84 Int=      0 D2E=      0 Chk=      5 Scr=      1
 Normal termination of Gaussian 09 at Fri Apr 12 12:42:44 2019.
